# f_l  POINT_DATA 1263
#  x  y  z  f_l
0.0661216 0.00222 0.0025 0.5
0.0661216 0.00222 -0.0025 0.5
0.0661541 0.00111 0.0025 0.5
0.0661541 0.00111 -0.0025 0.5
0.0661958 0.00166367 4.02074e-20 0.5
0.0661949 0.00174041 0.0025 0.5
0.0661949 0.00174041 -0.0025 0.5
0.0661989 0.00158559 0.0025 0.5
0.0661989 0.00158559 -0.0025 0.5
0.0661437 0.00333 0.0025 0.5
0.0661437 0.00333 -0.0025 0.5
0.0662232 0.00277595 2.05606e-19 0.5
0.0663049 0.000676253 -1.04737e-20 0.5
0.0662218 0.00267272 0.0025 0.5
0.0662218 0.00267272 -0.0025 0.5
0.0662246 0.00288012 0.0025 0.5
0.0662246 0.00288012 -0.0025 0.5
0.0663015 0.000736879 0.0025 0.5
0.0663015 0.000736879 -0.0025 0.5
0.0661667 0.00444 0.0025 0.5
0.0661667 0.00444 -0.0025 0.5
0.0662492 0.00388623 1.36122e-19 0.5
0.0662474 0.00375712 -0.0025 0.5
0.0662474 0.00375712 0.0025 0.5
0.0662511 0.00401656 0.0025 0.5
0.0662511 0.00401656 -0.0025 0.5
0.0662788 0.0049968 -1.72502e-21 0.5
0.0661945 0.00555 0.0025 0.5
0.0661945 0.00555 -0.0025 0.5
0.0662763 0.0048383 0.0025 0.5
0.0662763 0.0048383 -0.0025 0.5
0.0662817 0.00515711 0.0025 0.5
0.0662817 0.00515711 -0.0025 0.5
0.0663134 0.00610761 -5.79723e-20 0.5
0.0662281 0.00666 -0.0025 0.5
0.0662281 0.00666 0.0025 0.5
0.0663096 0.00591495 0.0025 0.5
0.0663096 0.00591495 -0.0025 0.5
0.0663175 0.00630288 0.0025 0.5
0.0663175 0.00630288 -0.0025 0.5
0.066675 0.000776387 -0.0025 0.5
0.066675 0.000776387 0.0025 0.5
0.0663524 0.00721861 -2.87789e-19 0.5
0.0663472 0.00698743 0.0025 0.5
0.0663472 0.00698743 -0.0025 0.5
0.0662674 0.00777 0.0025 0.5
0.0662674 0.00777 -0.0025 0.5
0.066358 0.00745339 0.0025 0.5
0.066358 0.00745339 -0.0025 0.5
0.0663898 0.00814635 -1.69987e-19 0.5
0.0663877 0.00805702 -0.0025 0.5
0.0663877 0.00805702 0.0025 0.5
0.0663114 0.00888 0.0025 0.5
0.0663114 0.00888 -0.0025 0.5
0.0664017 0.00860704 -0.00127046 0.5
0.0664017 0.00860704 0.00127046 0.5
0.0669528 0.0002775 0.0025 0.5
0.0669528 0.0002775 -0.0025 0.5
0.0664017 0.00860704 -0.0025 0.5
0.0664017 0.00860704 0.0025 0.5
0.0664292 0.00912555 0.00139393 0.5
0.0664292 0.00912555 -0.00139393 0.5
0.0664292 0.00912555 0.0025 0.5
0.0664292 0.00912555 -0.0025 0.5
0.0664372 0.009435 1.61286e-20 0.5
0.0663575 0.00999 0.0025 0.5
0.0663575 0.00999 -0.0025 0.5
0.0664461 0.00976133 -0.00146993 0.5
0.0664461 0.00976133 0.00146993 0.5
0.0664461 0.00976133 0.0025 0.5
0.0664461 0.00976133 -0.0025 0.5
0.0672306 0.0002775 9.10876e-20 0.5
0.0664692 0.0101956 0.00157384 0.5
0.0664692 0.0101956 -0.00157384 0.5
0.0664692 0.0101956 0.0025 0.5
0.0664692 0.0101956 -0.0025 0.5
0.0664782 0.010545 -5.63919e-20 0.5
0.0664014 0.0111 0.0025 0.5
0.0664014 0.0111 -0.0025 0.5
0.066487 0.0109122 -0.00165411 0.5
0.066487 0.0109122 0.00165411 0.5
0.066487 0.0109122 0.0025 0.5
0.066487 0.0109122 -0.0025 0.5
0.0665038 0.011271 0.0017296 0.5
0.0665038 0.011271 -0.0017296 0.5
0.0665038 0.011271 0.0025 0.5
0.0665038 0.011271 -0.0025 0.5
0.0665126 0.011655 1.77099e-19 0.5
0.0675084 0.0002775 0.0025 0.5
0.0675084 0.0002775 -0.0025 0.5
0.0664655 0.01221 0.0025 0.5
0.0664655 0.01221 -0.0025 0.5
0.0665361 0.0120713 -0.00187508 0.5
0.0665361 0.0120713 0.00187508 0.5
0.0665361 0.0120713 0.0025 0.5
0.0665361 0.0120713 -0.0025 0.5
0.0665467 0.0123382 -0.00192266 0.5
0.0665467 0.0123382 0.00192266 0.5
0.0665467 0.0123382 -0.0025 0.5
0.0665467 0.0123382 0.0025 0.5
0.0665717 0.012765 -2.11102e-19 0.5
0.0677863 0.000555 -0.0025 0.5
0.0677863 0.000555 0.0025 0.5
0.0665641 0.01332 0.0025 0.5
0.0665641 0.01332 -0.0025 0.5
0.0666029 0.013248 -0.00217562 0.5
0.0666029 0.013248 0.00217562 0.5
0.0666029 0.013248 0.0025 0.5
0.0666029 0.013248 -0.0025 0.5
0.0666082 0.0133868 0.00219931 0.5
0.0666082 0.0133868 -0.00219931 0.5
0.0666082 0.0133868 0.0025 0.5
0.0666082 0.0133868 -0.0025 0.5
0.0666415 0.013875 -4.31303e-19 0.5
0.0680641 0.0002775 0.0025 0.5
0.0680641 0.0002775 -0.0025 0.5
0.066675 0.0143609 0.0025 0.5
0.066675 0.0143609 -0.0025 0.5
0.0666794 0.0144256 -0.00248004 0.5
0.0666794 0.0144256 0.00248004 0.5
0.0666794 0.0144256 0.0025 0.5
0.0666794 0.0144256 -0.0025 0.5
0.0666804 0.0144354 -0.00247549 0.5
0.0666804 0.0144354 0.00247549 0.5
0.0666804 0.0144354 0.0025 0.5
0.0666804 0.0144354 -0.0025 0.5
0.0666829 0.01443 0.0025 0.5
0.0666829 0.01443 -0.0025 0.5
0.0683419 0.0002775 1.14121e-19 0.5
0.0667207 0.014985 3.17419e-19 0.5
0.0667565 0.0154586 0.00213316 0.5
0.0667565 0.0154586 -0.00213316 0.5
0.0667565 0.0154586 0.0025 0.5
0.0667565 0.0154586 -0.0025 0.5
0.0667777 0.0156426 -0.00203785 0.5
0.0667777 0.0156426 0.00203785 0.5
0.0667777 0.0156426 0.0025 0.5
0.0667777 0.0156426 -0.0025 0.5
0.0668082 0.01554 0.0025 0.5
0.0668082 0.01554 -0.0025 0.5
0.0686197 0.0002775 0.0025 0.5
0.0686197 0.0002775 -0.0025 0.5
0.0668145 0.016095 1.83813e-19 0.5
0.066847 0.0164782 -0.0017263 0.5
0.066847 0.0164782 0.0017263 0.5
0.066847 0.0164782 0.0025 0.5
0.066847 0.0164782 -0.0025 0.5
0.0688975 0.000555 -0.0025 0.5
0.0688975 0.000555 0.0025 0.5
0.0668986 0.0168734 -0.00149378 0.5
0.0668986 0.0168734 0.00149378 0.5
0.0669305 0.01665 0.0025 0.5
0.0669305 0.01665 -0.0025 0.5
0.0668986 0.0168734 0.0025 0.5
0.0668986 0.0168734 -0.0025 0.5
0.0669465 0.0173885 -1.24915e-19 0.5
0.0691753 0.0002775 0.0025 0.5
0.0691753 0.0002775 -0.0025 0.5
0.0669551 0.0174802 0.0025 0.5
0.0669551 0.0174802 -0.0025 0.5
0.0670497 0.01776 0.0025 0.5
0.0670497 0.01776 -0.0025 0.5
0.0694531 0.0002775 9.36031e-20 0.5
0.0670551 0.0181397 0.0025 0.5
0.0670551 0.0181397 -0.0025 0.5
0.0670723 0.0183039 -4.14694e-21 0.5
0.0670885 0.018457 0.0025 0.5
0.0670885 0.018457 -0.0025 0.5
0.0697309 0.0002775 0.0025 0.5
0.0697309 0.0002775 -0.0025 0.5
0.0671655 0.01887 0.0025 0.5
0.0671655 0.01887 -0.0025 0.5
0.0672553 0.0194122 1.18564e-20 0.5
0.0672552 0.0194005 0.0025 0.5
0.0672552 0.0194005 -0.0025 0.5
0.0700088 0.000555 -0.0025 0.5
0.0700088 0.000555 0.0025 0.5
0.0672597 0.019454 0.0025 0.5
0.0672597 0.019454 -0.0025 0.5
0.0672776 0.01998 0.0025 0.5
0.0672776 0.01998 -0.0025 0.5
0.0702866 0.0002775 0.0025 0.5
0.0702866 0.0002775 -0.0025 0.5
0.0674025 0.0203634 0.0025 0.5
0.0674025 0.0203634 -0.0025 0.5
0.0674156 0.020544 8.92593e-20 0.5
0.0705644 0.0002775 2.66209e-19 0.5
0.0674294 0.0207335 0.0025 0.5
0.0674294 0.0207335 -0.0025 0.5
0.0673843 0.02109 0.0025 0.5
0.0673843 0.02109 -0.0025 0.5
0.0675144 0.0213615 0.00127685 0.5
0.0675144 0.0213615 -0.00127685 0.5
0.0675144 0.0213615 0.0025 0.5
0.0675144 0.0213615 -0.0025 0.5
0.0708422 0.0002775 0.0025 0.5
0.0708422 0.0002775 -0.0025 0.5
0.0675324 0.021645 4.00413e-19 0.5
0.067552 0.021966 -0.00144598 0.5
0.067552 0.021966 0.00144598 0.5
0.067552 0.021966 0.0025 0.5
0.067552 0.021966 -0.0025 0.5
0.0674834 0.0222 0.0025 0.5
0.0674834 0.0222 -0.0025 0.5
0.07112 0.000555 -0.0025 0.5
0.07112 0.000555 0.0025 0.5
0.0676003 0.0223857 0.00166347 0.5
0.0676003 0.0223857 -0.00166347 0.5
0.0676003 0.0223857 -0.0025 0.5
0.0676003 0.0223857 0.0025 0.5
0.0676204 0.022755 8.97911e-19 0.5
0.0713978 0.0002775 0.0025 0.5
0.0713978 0.0002775 -0.0025 0.5
0.0676405 0.0231644 -0.00184407 0.5
0.0676405 0.0231644 0.00184407 0.5
0.0675727 0.02331 0.0025 0.5
0.0675727 0.02331 -0.0025 0.5
0.0676405 0.0231644 0.0025 0.5
0.0676405 0.0231644 -0.0025 0.5
0.0676653 0.0234308 0.0019559 0.5
0.0676653 0.0234308 -0.0019559 0.5
0.0676653 0.0234308 -0.0025 0.5
0.0676653 0.0234308 0.0025 0.5
0.0716756 0.0002775 9.36031e-20 0.5
0.0676847 0.023865 -6.07349e-19 0.5
0.0676808 0.02442 0.0025 0.5
0.0676808 0.02442 -0.0025 0.5
0.0719534 0.0002775 0.0025 0.5
0.0719534 0.0002775 -0.0025 0.5
0.0677212 0.024355 -0.00220724 0.5
0.0677212 0.024355 0.00220724 0.5
0.0677212 0.024355 0.0025 0.5
0.0677212 0.024355 -0.0025 0.5
0.0677294 0.0244767 0.00224441 0.5
0.0677294 0.0244767 -0.00224441 0.5
0.0677294 0.0244767 0.0025 0.5
0.0677294 0.0244767 -0.0025 0.5
0.0677671 0.024975 2.39174e-20 0.5
0.0722313 0.000555 -0.0025 0.5
0.0722313 0.000555 0.0025 0.5
0.0677863 0.0251093 -0.0025 0.5
0.0677863 0.0251093 0.0025 0.5
0.0678201 0.0254962 -0.00234769 0.5
0.0678201 0.0254962 0.00234769 0.5
0.0678201 0.0254962 0.0025 0.5
0.0678201 0.0254962 -0.0025 0.5
0.0678334 0.0255771 -0.00228796 0.5
0.0678334 0.0255771 0.00228796 0.5
0.0678334 0.0255771 0.0025 0.5
0.0678334 0.0255771 -0.0025 0.5
0.0678536 0.02553 0.0025 0.5
0.0678536 0.02553 -0.0025 0.5
0.0725091 0.0002775 0.0025 0.5
0.0725091 0.0002775 -0.0025 0.5
0.0678912 0.026085 8.733e-20 0.5
0.0727869 0.0002775 1.145e-19 0.5
0.0679309 0.0264956 -0.00184936 0.5
0.0679309 0.0264956 0.00184936 0.5
0.0679309 0.0264956 0.0025 0.5
0.0679309 0.0264956 -0.0025 0.5
0.068033 0.02664 0.0025 0.5
0.068033 0.02664 -0.0025 0.5
0.0730647 0.0002775 0.0025 0.5
0.0730647 0.0002775 -0.0025 0.5
0.0679879 0.0268414 -0.00159257 0.5
0.0679879 0.0268414 0.00159257 0.5
0.0679879 0.0268414 0.0025 0.5
0.0679879 0.0268414 -0.0025 0.5
0.0680266 0.027195 9.28479e-20 0.5
0.0733425 0.000555 -0.0025 0.5
0.0733425 0.000555 0.0025 0.5
0.0680551 0.0274814 -0.00129014 0.5
0.0680551 0.0274814 0.00129014 0.5
0.0680551 0.0274814 0.0025 0.5
0.0680551 0.0274814 -0.0025 0.5
0.0681821 0.02775 0.0025 0.5
0.0681821 0.02775 -0.0025 0.5
0.0736203 0.0002775 0.0025 0.5
0.0736203 0.0002775 -0.0025 0.5
0.0681727 0.0281361 0.0025 0.5
0.0681727 0.0281361 -0.0025 0.5
0.0681902 0.0282941 2.05163e-19 0.5
0.0738981 0.0002775 1.12679e-19 0.5
0.0682056 0.0284411 0.0025 0.5
0.0682056 0.0284411 -0.0025 0.5
0.0683117 0.02886 0.0025 0.5
0.0683117 0.02886 -0.0025 0.5
0.0741759 0.0002775 0.0025 0.5
0.0741759 0.0002775 -0.0025 0.5
0.0683954 0.0293913 7.67725e-20 0.5
0.0683946 0.0293624 0.0025 0.5
0.0683946 0.0293624 -0.0025 0.5
0.0744538 0.000555 -0.0025 0.5
0.0744538 0.000555 0.0025 0.5
0.0684055 0.0294786 0.0025 0.5
0.0684055 0.0294786 -0.0025 0.5
0.0684252 0.02997 0.0025 0.5
0.0684252 0.02997 -0.0025 0.5
0.0747316 0.0002775 0.0025 0.5
0.0747316 0.0002775 -0.0025 0.5
0.0685456 0.0303215 -0.0025 0.5
0.0685456 0.0303215 0.0025 0.5
0.0750094 0.0002775 1.14375e-19 0.5
0.0685618 0.030536 -5.67992e-20 0.5
0.0685786 0.0307615 0.0025 0.5
0.0685786 0.0307615 -0.0025 0.5
0.0685294 0.03108 0.0025 0.5
0.0685294 0.03108 -0.0025 0.5
0.0752872 0.0002775 0.0025 0.5
0.0752872 0.0002775 -0.0025 0.5
0.0686554 0.0313218 0.0014107 0.5
0.0686554 0.0313218 -0.0014107 0.5
0.0686554 0.0313218 0.0025 0.5
0.0686554 0.0313218 -0.0025 0.5
0.075565 0.000555 -0.0025 0.5
0.075565 0.000555 0.0025 0.5
0.0686755 0.031635 7.31711e-20 0.5
0.0687058 0.0319985 -0.00163753 0.5
0.0687058 0.0319985 0.00163753 0.5
0.0687058 0.0319985 0.0025 0.5
0.0687058 0.0319985 -0.0025 0.5
0.0686464 0.03219 0.0025 0.5
0.0686464 0.03219 -0.0025 0.5
0.0758428 0.0002775 0.0025 0.5
0.0758428 0.0002775 -0.0025 0.5
0.0687569 0.0323304 0.00186756 0.5
0.0687569 0.0323304 -0.00186756 0.5
0.0687569 0.0323304 0.0025 0.5
0.0687569 0.0323304 -0.0025 0.5
0.0761206 0.0002775 1.14623e-19 0.5
0.0687866 0.032745 1.55314e-19 0.5
0.0688056 0.0332082 -0.0020864 0.5
0.0688056 0.0332082 0.0020864 0.5
0.0687505 0.0333 0.0025 0.5
0.0687505 0.0333 -0.0025 0.5
0.0763984 0.0002775 0.0025 0.5
0.0763984 0.0002775 -0.0025 0.5
0.0688056 0.0332082 0.0025 0.5
0.0688056 0.0332082 -0.0025 0.5
0.068819 0.0333784 0.00214672 0.5
0.068819 0.0333784 -0.00214672 0.5
0.068819 0.0333784 0.0025 0.5
0.068819 0.0333784 -0.0025 0.5
0.068837 0.033855 1.10217e-19 0.5
0.0766763 0.000555 -0.0025 0.5
0.0766763 0.000555 0.0025 0.5
0.06881 0.03441 0.0025 0.5
0.06881 0.03441 -0.0025 0.5
0.0688479 0.0343605 -0.00227692 0.5
0.0688479 0.0343605 0.00227692 0.5
0.0688479 0.0343605 0.0025 0.5
0.0688479 0.0343605 -0.0025 0.5
0.0769541 0.0002775 0.0025 0.5
0.0769541 0.0002775 -0.0025 0.5
0.0688519 0.0344555 0.00229494 0.5
0.0688519 0.0344555 -0.00229494 0.5
0.0688519 0.0344555 0.0025 0.5
0.0688519 0.0344555 -0.0025 0.5
0.0688624 0.034965 3.61886e-20 0.5
0.0772319 0.0002775 1.08196e-19 0.5
0.068866 0.03552 0.0025 0.5
0.068866 0.03552 -0.0025 0.5
0.0688804 0.0355029 -0.00242294 0.5
0.0688804 0.0355029 0.00242294 0.5
0.0688804 0.0355029 0.0025 0.5
0.0688804 0.0355029 -0.0025 0.5
0.0688818 0.0355357 0.00242947 0.5
0.0688818 0.0355357 -0.00242947 0.5
0.0688818 0.0355357 0.0025 0.5
0.0688818 0.0355357 -0.0025 0.5
0.0775097 0.0002775 0.0025 0.5
0.0775097 0.0002775 -0.0025 0.5
0.0688975 0.0358652 -0.0025 0.5
0.0688975 0.0358652 0.0025 0.5
0.0688994 0.036075 8.6897e-20 0.5
0.0777875 0.000555 -0.0025 0.5
0.0777875 0.000555 0.0025 0.5
0.0689313 0.0365962 -0.00234792 0.5
0.0689313 0.0365962 0.00234792 0.5
0.0689313 0.0365962 0.0025 0.5
0.0689313 0.0365962 -0.0025 0.5
0.0780653 0.0002775 0.0025 0.5
0.0780653 0.0002775 -0.0025 0.5
0.06894 0.0366724 -0.00230894 0.5
0.06894 0.0366724 0.00230894 0.5
0.06894 0.0366724 0.0025 0.5
0.06894 0.0366724 -0.0025 0.5
0.0689673 0.03663 0.0025 0.5
0.0689673 0.03663 -0.0025 0.5
0.0783431 0.0002775 8.26565e-20 0.5
0.0689746 0.037185 1.45943e-19 0.5
0.0689952 0.0376424 -0.00206054 0.5
0.0689952 0.0376424 0.00206054 0.5
0.0689952 0.0376424 -0.0025 0.5
0.0689952 0.0376424 0.0025 0.5
0.0786209 0.0002775 0.0025 0.5
0.0786209 0.0002775 -0.0025 0.5
0.0690143 0.0378567 -0.00197451 0.5
0.0690143 0.0378567 0.00197451 0.5
0.0690757 0.03774 0.0025 0.5
0.0690757 0.03774 -0.0025 0.5
0.0690143 0.0378567 -0.0025 0.5
0.0690143 0.0378567 0.0025 0.5
0.0788988 0.000555 -0.0025 0.5
0.0788988 0.000555 0.0025 0.5
0.0690358 0.038295 9.9771e-19 0.5
0.0690505 0.0386972 -0.00181162 0.5
0.0690505 0.0386972 0.00181162 0.5
0.0690505 0.0386972 0.0025 0.5
0.0690505 0.0386972 -0.0025 0.5
0.0791766 0.0002775 0.0025 0.5
0.0791766 0.0002775 -0.0025 0.5
0.0691515 0.03885 0.0025 0.5
0.0691515 0.03885 -0.0025 0.5
0.0690757 0.039028 -0.00169841 0.5
0.0690757 0.039028 0.00169841 0.5
0.0690757 0.039028 0.0025 0.5
0.0690757 0.039028 -0.0025 0.5
0.0794544 0.0002775 9.54222e-20 0.5
0.0690906 0.039405 -8.45874e-19 0.5
0.0691016 0.0397562 -0.00158188 0.5
0.0691016 0.0397562 0.00158188 0.5
0.0691016 0.0397562 0.0025 0.5
0.0691016 0.0397562 -0.0025 0.5
0.0797322 0.0002775 0.0025 0.5
0.0797322 0.0002775 -0.0025 0.5
0.0692098 0.03996 0.0025 0.5
0.0692098 0.03996 -0.0025 0.5
0.0691297 0.0401919 -0.00145519 0.5
0.0691297 0.0401919 0.00145519 0.5
0.0691297 0.0401919 -0.0025 0.5
0.0691297 0.0401919 0.0025 0.5
0.08001 0.000555 -0.0025 0.5
0.08001 0.000555 0.0025 0.5
0.0691405 0.040515 1.46501e-18 0.5
0.0691481 0.0408197 0.00137235 0.5
0.0691481 0.0408197 -0.00137235 0.5
0.0802878 0.0002775 0.0025 0.5
0.0802878 0.0002775 -0.0025 0.5
0.0691481 0.0408197 0.0025 0.5
0.0691481 0.0408197 -0.0025 0.5
0.069255 0.04107 0.0025 0.5
0.069255 0.04107 -0.0025 0.5
0.0805656 0.0002775 1.15842e-19 0.5
0.0691752 0.0413474 -0.0012504 0.5
0.0691752 0.0413474 0.0012504 0.5
0.0691752 0.0413474 0.0025 0.5
0.0691752 0.0413474 -0.0025 0.5
0.0691857 0.0418021 -9.548e-19 0.5
0.0808434 0.0002775 0.0025 0.5
0.0808434 0.0002775 -0.0025 0.5
0.0691872 0.0418906 0.0025 0.5
0.0691872 0.0418906 -0.0025 0.5
0.0692872 0.04218 0.0025 0.5
0.0692872 0.04218 -0.0025 0.5
0.0811213 0.000555 -0.0025 0.5
0.0811213 0.000555 0.0025 0.5
0.0692088 0.0424909 0.0025 0.5
0.0692088 0.0424909 -0.0025 0.5
0.0692125 0.0427327 2.62446e-19 0.5
0.0813991 0.0002775 0.0025 0.5
0.0813991 0.0002775 -0.0025 0.5
0.0692156 0.0429722 0.0025 0.5
0.0692156 0.0429722 -0.0025 0.5
0.0816769 0.0002775 9.5745e-20 0.5
0.0693073 0.04329 -0.0025 0.5
0.0693073 0.04329 0.0025 0.5
0.0692289 0.043621 -0.0025 0.5
0.0692289 0.043621 0.0025 0.5
0.0692308 0.0438439 1.29364e-19 0.5
0.0819547 0.0002775 0.0025 0.5
0.0819547 0.0002775 -0.0025 0.5
0.0692323 0.0440656 -0.0025 0.5
0.0692323 0.0440656 0.0025 0.5
0.0822325 0.000555 -0.0025 0.5
0.0822325 0.000555 0.0025 0.5
0.0693179 0.0444 -0.0025 0.5
0.0693179 0.0444 0.0025 0.5
0.0692391 0.0447412 0.0025 0.5
0.0692391 0.0447412 -0.0025 0.5
0.0825103 0.0002775 0.0025 0.5
0.0825103 0.0002775 -0.0025 0.5
0.0692396 0.0449548 1.85271e-18 0.5
0.0692397 0.0451682 0.0025 0.5
0.0692397 0.0451682 -0.0025 0.5
0.0827881 0.0002775 8.32524e-20 0.5
0.0693201 0.04551 0.0025 0.5
0.0693201 0.04551 -0.0025 0.5
0.0692371 0.0458492 -0.0025 0.5
0.0692371 0.0458492 0.0025 0.5
0.0830659 0.0002775 0.0025 0.5
0.0830659 0.0002775 -0.0025 0.5
0.069236 0.046066 -2.0141e-18 0.5
0.0692342 0.0462837 0.0025 0.5
0.0692342 0.0462837 -0.0025 0.5
0.0833437 0.000555 -0.0025 0.5
0.0833437 0.000555 0.0025 0.5
0.0693109 0.04662 0.0025 0.5
0.0693109 0.04662 -0.0025 0.5
0.0836216 0.0002775 0.0025 0.5
0.0836216 0.0002775 -0.0025 0.5
0.0692193 0.0469415 -0.0025 0.5
0.0692193 0.0469415 0.0025 0.5
0.0692161 0.0471774 2.14092e-19 0.5
0.0838994 0.0002775 3.228e-22 0.5
0.0692122 0.0474156 0.0025 0.5
0.0692122 0.0474156 -0.0025 0.5
0.0692899 0.04773 0.0025 0.5
0.0692899 0.04773 -0.0025 0.5
0.0841772 0.0002775 0.0025 0.5
0.0841772 0.0002775 -0.0025 0.5
0.0691901 0.0480222 0.0025 0.5
0.0691901 0.0480222 -0.0025 0.5
0.0691847 0.0482888 -1.66962e-19 0.5
0.084455 0.000555 -0.0025 0.5
0.084455 0.000555 0.0025 0.5
0.0691786 0.0485593 0.0025 0.5
0.0691786 0.0485593 -0.0025 0.5
0.0847328 0.0002775 0.0025 0.5
0.0847328 0.0002775 -0.0025 0.5
0.0692586 0.04884 0.0025 0.5
0.0692586 0.04884 -0.0025 0.5
0.0691526 0.0490948 -0.00135205 0.5
0.0691526 0.0490948 0.00135205 0.5
0.0691526 0.0490948 0.0025 0.5
0.0691526 0.0490948 -0.0025 0.5
0.0691455 0.049395 2.4646e-18 0.5
0.0850106 0.0002775 0 0.5
0.069136 0.0497118 -0.00142686 0.5
0.069136 0.0497118 0.00142686 0.5
0.069136 0.0497118 0.0025 0.5
0.069136 0.0497118 -0.0025 0.5
0.0852884 0.0002775 0.0025 0.5
0.0852884 0.0002775 -0.0025 0.5
0.0692174 0.04995 0.0025 0.5
0.0692174 0.04995 -0.0025 0.5
0.0691097 0.050162 -0.00154523 0.5
0.0691097 0.050162 0.00154523 0.5
0.0691097 0.050162 -0.0025 0.5
0.0691097 0.050162 0.0025 0.5
0.0691 0.050505 -2.51049e-18 0.5
0.0855663 0.000555 -0.0025 0.5
0.0855663 0.000555 0.0025 0.5
0.0690875 0.0508702 0.00164498 0.5
0.0690875 0.0508702 -0.00164498 0.5
0.0690875 0.0508702 0.0025 0.5
0.0690875 0.0508702 -0.0025 0.5
0.0858441 0.0002775 0.0025 0.5
0.0858441 0.0002775 -0.0025 0.5
0.0690641 0.0512264 -0.00175049 0.5
0.0690641 0.0512264 0.00175049 0.5
0.0691666 0.05106 0.0025 0.5
0.0691666 0.05106 -0.0025 0.5
0.0690641 0.0512264 -0.0025 0.5
0.0690641 0.0512264 0.0025 0.5
0.0861219 0.0002775 0 0.5
0.0690517 0.051615 4.59007e-18 0.5
0.0863997 0.0002775 0.0025 0.5
0.0863997 0.0002775 -0.0025 0.5
0.0690363 0.0520314 -0.00187555 0.5
0.0690363 0.0520314 0.00187555 0.5
0.0690363 0.0520314 -0.0025 0.5
0.0690363 0.0520314 0.0025 0.5
0.0690182 0.0522905 -0.00195709 0.5
0.0690182 0.0522905 0.00195709 0.5
0.0691069 0.05217 -0.0025 0.5
0.0691069 0.05217 0.0025 0.5
0.0690182 0.0522905 -0.0025 0.5
0.0690182 0.0522905 0.0025 0.5
0.0866775 0.000555 -0.0025 0.5
0.0866775 0.000555 0.0025 0.5
0.0690031 0.052725 -4.28094e-18 0.5
0.0869553 0.0002775 0.0025 0.5
0.0869553 0.0002775 -0.0025 0.5
0.0689838 0.0531938 0.00211183 0.5
0.0689838 0.0531938 -0.00211183 0.5
0.0689838 0.0531938 0.0025 0.5
0.0689838 0.0531938 -0.0025 0.5
0.0689721 0.0533545 -0.00216456 0.5
0.0689721 0.0533545 0.00216456 0.5
0.0872331 0.0002775 0 0.5
0.0689721 0.0533545 0.0025 0.5
0.0689721 0.0533545 -0.0025 0.5
0.0690367 0.05328 -0.0025 0.5
0.0690367 0.05328 0.0025 0.5
0.0689535 0.053835 -1.22177e-18 0.5
0.0875109 0.0002775 0.0025 0.5
0.0875109 0.0002775 -0.0025 0.5
0.0689273 0.0543602 -0.00236583 0.5
0.0689273 0.0543602 0.00236583 0.5
0.0689273 0.0543602 0.0025 0.5
0.0689273 0.0543602 -0.0025 0.5
0.0877888 0.000555 -0.0025 0.5
0.0877888 0.000555 0.0025 0.5
0.0689228 0.0544152 -0.00238634 0.5
0.0689228 0.0544152 0.00238634 0.5
0.0689228 0.0544152 0.0025 0.5
0.0689228 0.0544152 -0.0025 0.5
0.0689489 0.05439 0.0025 0.5
0.0689489 0.05439 -0.0025 0.5
0.0880666 0.0002775 -0.00125 0.5
0.0880666 0.0002775 0.00125 0.5
0.0880666 0.0002775 0.0025 0.5
0.0880666 0.0002775 -0.0025 0.5
0.0688982 0.054945 1.29752e-18 0.5
0.0688975 0.0551561 -0.0025 0.5
0.0688975 0.0551561 0.0025 0.5
0.0883444 0.0002775 0 0.5
0.0883444 0.00111 0.0025 0.5
0.0883444 0.00111 -0.0025 0.5
0.0883444 0.00222 0.0025 0.5
0.0883444 0.00222 -0.0025 0.5
0.0883444 0.00333 0.0025 0.5
0.0883444 0.00333 -0.0025 0.5
0.0688745 0.0555 0.0025 0.5
0.0688745 0.0555 -0.0025 0.5
0.0688859 0.0554884 -0.00244779 0.5
0.0688859 0.0554884 0.00244779 0.5
0.0688859 0.0554884 0.0025 0.5
0.0688859 0.0554884 -0.0025 0.5
0.0883444 0.00444 0.0025 0.5
0.0883444 0.00444 -0.0025 0.5
0.0688853 0.0555121 0.00244527 0.5
0.0688853 0.0555121 -0.00244527 0.5
0.0688853 0.0555121 0.0025 0.5
0.0688853 0.0555121 -0.0025 0.5
0.0883444 0.00555 0.0025 0.5
0.0883444 0.00555 -0.0025 0.5
0.0886222 0.000555 0 0.5
0.0883444 0.00666 0.0025 0.5
0.0883444 0.00666 -0.0025 0.5
0.0886222 0.0002775 -0.00125 0.5
0.0886222 0.0002775 0.00125 0.5
0.0886222 0.0008325 0.00125 0.5
0.0886222 0.0008325 -0.00125 0.5
0.0886222 0.001665 0 0.5
0.0886222 0.0002775 0.0025 0.5
0.0886222 0.0002775 -0.0025 0.5
0.0886222 0.0008325 0.0025 0.5
0.0886222 0.0008325 -0.0025 0.5
0.0886222 0.002775 0 0.5
0.0886222 0.0013875 0.0025 0.5
0.0886222 0.0013875 -0.0025 0.5
0.0886222 0.0019425 0.0025 0.5
0.0886222 0.0019425 -0.0025 0.5
0.0886222 0.0024975 0.0025 0.5
0.0886222 0.0024975 -0.0025 0.5
0.0886222 0.003885 0 0.5
0.0886222 0.0030525 0.0025 0.5
0.0886222 0.0030525 -0.0025 0.5
0.0883444 0.00777 0.0025 0.5
0.0883444 0.00777 -0.0025 0.5
0.0886222 0.0036075 0.0025 0.5
0.0886222 0.0036075 -0.0025 0.5
0.0886222 0.0041625 0.0025 0.5
0.0886222 0.0041625 -0.0025 0.5
0.0886222 0.004995 -1.81603e-19 0.5
0.0886222 0.0047175 0.0025 0.5
0.0886222 0.0047175 -0.0025 0.5
0.0688731 0.056055 -2.56204e-18 0.5
0.0886222 0.0052725 0.0025 0.5
0.0886222 0.0052725 -0.0025 0.5
0.0883444 0.00888 0.0025 0.5
0.0883444 0.00888 -0.0025 0.5
0.0886222 0.006105 -4.31797e-21 0.5
0.0886222 0.0058275 0.0025 0.5
0.0886222 0.0058275 -0.0025 0.5
0.0886222 0.0063825 0.0025 0.5
0.0886222 0.0063825 -0.0025 0.5
0.0886222 0.007215 3.76366e-21 0.5
0.0886222 0.0069375 -0.0025 0.5
0.0886222 0.0069375 0.0025 0.5
0.0883444 0.00999 0.0025 0.5
0.0883444 0.00999 -0.0025 0.5
0.0886222 0.0074925 -0.0025 0.5
0.0886222 0.0074925 0.0025 0.5
0.0886222 0.008325 1.10296e-21 0.5
0.0886222 0.0080475 -0.0025 0.5
0.0886222 0.0080475 0.0025 0.5
0.0886222 0.0086025 -0.0025 0.5
0.0886222 0.0086025 0.0025 0.5
0.0883444 0.0111 0.0025 0.5
0.0883444 0.0111 -0.0025 0.5
0.0886222 0.009435 1.92878e-21 0.5
0.0886222 0.0091575 0.0025 0.5
0.0886222 0.0091575 -0.0025 0.5
0.0688645 0.056577 0.00235143 0.5
0.0688645 0.056577 -0.00235143 0.5
0.0688332 0.05661 -0.0025 0.5
0.0688332 0.05661 0.0025 0.5
0.0688645 0.056577 0.0025 0.5
0.0688645 0.056577 -0.0025 0.5
0.0886222 0.0097125 0.0025 0.5
0.0886222 0.0097125 -0.0025 0.5
0.0688622 0.0566453 0.00234117 0.5
0.0688622 0.0566453 -0.00234117 0.5
0.0688622 0.0566453 0.0025 0.5
0.0688622 0.0566453 -0.0025 0.5
0.0883444 0.01221 0.0025 0.5
0.0883444 0.01221 -0.0025 0.5
0.0886222 0.010545 3.88923e-21 0.5
0.0886222 0.0102675 0.0025 0.5
0.0886222 0.0102675 -0.0025 0.5
0.0886222 0.0108225 0.0025 0.5
0.0886222 0.0108225 -0.0025 0.5
0.0883444 0.01332 0.0025 0.5
0.0883444 0.01332 -0.0025 0.5
0.0886222 0.0113775 0.0025 0.5
0.0886222 0.0113775 -0.0025 0.5
0.0886222 0.011655 2.78619e-21 0.5
0.0886222 0.0119325 0.0025 0.5
0.0886222 0.0119325 -0.0025 0.5
0.0688534 0.057165 2.0267e-19 0.5
0.0886222 0.0124875 -0.0025 0.5
0.0886222 0.0124875 0.0025 0.5
0.0886222 0.012765 1.81655e-19 0.5
0.0883444 0.01443 0.0025 0.5
0.0883444 0.01443 -0.0025 0.5
0.0886222 0.0130425 -0.0025 0.5
0.0886222 0.0130425 0.0025 0.5
0.0886222 0.0135975 0.0025 0.5
0.0886222 0.0135975 -0.0025 0.5
0.0886222 0.013875 0 0.5
0.0883444 0.01554 0.0025 0.5
0.0883444 0.01554 -0.0025 0.5
0.0886222 0.0141525 0.0025 0.5
0.0886222 0.0141525 -0.0025 0.5
0.0688431 0.0576657 -0.00225521 0.5
0.0688431 0.0576657 0.00225521 0.5
0.0687946 0.05772 0.0025 0.5
0.0687946 0.05772 -0.0025 0.5
0.0688431 0.0576657 -0.0025 0.5
0.0688431 0.0576657 0.0025 0.5
0.0886222 0.0147075 -0.0025 0.5
0.0886222 0.0147075 0.0025 0.5
0.0886222 0.014985 7.52748e-21 0.5
0.0688383 0.0577791 -0.00223383 0.5
0.0688383 0.0577791 0.00223383 0.5
0.0688383 0.0577791 -0.0025 0.5
0.0688383 0.0577791 0.0025 0.5
0.0883444 0.01665 0.0025 0.5
0.0883444 0.01665 -0.0025 0.5
0.0886222 0.0152625 -0.0025 0.5
0.0886222 0.0152625 0.0025 0.5
0.0886222 0.0158175 0.0025 0.5
0.0886222 0.0158175 -0.0025 0.5
0.0886222 0.016095 0 0.5
0.0883444 0.01776 0.0025 0.5
0.0883444 0.01776 -0.0025 0.5
0.0886222 0.0163725 0.0025 0.5
0.0886222 0.0163725 -0.0025 0.5
0.0688277 0.058275 2.14827e-18 0.5
0.0886222 0.0169275 0.0025 0.5
0.0886222 0.0169275 -0.0025 0.5
0.0886222 0.017205 0 0.5
0.0886222 0.0174825 0.0025 0.5
0.0886222 0.0174825 -0.0025 0.5
0.0883444 0.01887 0.0025 0.5
0.0883444 0.01887 -0.0025 0.5
0.0886222 0.0180375 0.0025 0.5
0.0886222 0.0180375 -0.0025 0.5
0.0886222 0.018315 -4.24739e-19 0.5
0.0688177 0.0587503 0.00214115 0.5
0.0688177 0.0587503 -0.00214115 0.5
0.0688177 0.0587503 0.0025 0.5
0.0688177 0.0587503 -0.0025 0.5
0.0687528 0.05883 -0.0025 0.5
0.0687528 0.05883 0.0025 0.5
0.0886222 0.0185925 0.0025 0.5
0.0886222 0.0185925 -0.0025 0.5
0.0883444 0.01998 0.0025 0.5
0.0883444 0.01998 -0.0025 0.5
0.0688106 0.0589168 0.00210901 0.5
0.0688106 0.0589168 -0.00210901 0.5
0.0688106 0.0589168 0.0025 0.5
0.0688106 0.0589168 -0.0025 0.5
0.0886222 0.0191475 0.0025 0.5
0.0886222 0.0191475 -0.0025 0.5
0.0886222 0.019425 2.54579e-19 0.5
0.0886222 0.0197025 0.0025 0.5
0.0886222 0.0197025 -0.0025 0.5
0.0883444 0.02109 0.0025 0.5
0.0883444 0.02109 -0.0025 0.5
0.0688003 0.059385 7.55222e-19 0.5
0.0886222 0.0202575 0.0025 0.5
0.0886222 0.0202575 -0.0025 0.5
0.0886222 0.020535 -4.2863e-21 0.5
0.0886222 0.0208125 0.0025 0.5
0.0886222 0.0208125 -0.0025 0.5
0.0883444 0.0222 0.0025 0.5
0.0883444 0.0222 -0.0025 0.5
0.0687912 0.0598338 0.00202174 0.5
0.0687912 0.0598338 -0.00202174 0.5
0.0886222 0.0213675 0.0025 0.5
0.0886222 0.0213675 -0.0025 0.5
0.0687912 0.0598338 0.0025 0.5
0.0687912 0.0598338 -0.0025 0.5
0.0687129 0.05994 0.0025 0.5
0.0687129 0.05994 -0.0025 0.5
0.0886222 0.021645 -2.44648e-21 0.5
0.0886222 0.0219225 0.0025 0.5
0.0886222 0.0219225 -0.0025 0.5
0.068782 0.0600554 -0.00198034 0.5
0.068782 0.0600554 0.00198034 0.5
0.068782 0.0600554 0.0025 0.5
0.068782 0.0600554 -0.0025 0.5
0.0883444 0.02331 0.0025 0.5
0.0883444 0.02331 -0.0025 0.5
0.0886222 0.0224775 0.0025 0.5
0.0886222 0.0224775 -0.0025 0.5
0.0886222 0.022755 -2.49561e-19 0.5
0.0687727 0.060495 3.24171e-18 0.5
0.0886222 0.0230325 0.0025 0.5
0.0886222 0.0230325 -0.0025 0.5
0.0883444 0.02442 0.0025 0.5
0.0883444 0.02442 -0.0025 0.5
0.0886222 0.0235875 0.0025 0.5
0.0886222 0.0235875 -0.0025 0.5
0.0886222 0.023865 4.33092e-19 0.5
0.0886222 0.0241425 0.0025 0.5
0.0886222 0.0241425 -0.0025 0.5
0.0687649 0.0609175 -0.00190333 0.5
0.0687649 0.0609175 0.00190333 0.5
0.0687649 0.0609175 0.0025 0.5
0.0687649 0.0609175 -0.0025 0.5
0.0686769 0.06105 -0.0025 0.5
0.0686769 0.06105 0.0025 0.5
0.0883444 0.02553 0.0025 0.5
0.0883444 0.02553 -0.0025 0.5
0.0886222 0.0246975 -0.0025 0.5
0.0886222 0.0246975 0.0025 0.5
0.0687545 0.0611928 0.00185679 0.5
0.0687545 0.0611928 -0.00185679 0.5
0.0886222 0.024975 1.19177e-21 0.5
0.0687545 0.0611928 0.0025 0.5
0.0687545 0.0611928 -0.0025 0.5
0.0886222 0.0252525 0.0025 0.5
0.0886222 0.0252525 -0.0025 0.5
0.0883444 0.02664 0.0025 0.5
0.0883444 0.02664 -0.0025 0.5
0.0687467 0.061605 -2.99191e-18 0.5
0.0886222 0.0258075 0.0025 0.5
0.0886222 0.0258075 -0.0025 0.5
0.0886222 0.026085 9.22105e-21 0.5
0.0886222 0.0263625 0.0025 0.5
0.0886222 0.0263625 -0.0025 0.5
0.0687405 0.0620031 0.00179346 0.5
0.0687405 0.0620031 -0.00179346 0.5
0.0687405 0.0620031 0.0025 0.5
0.0687405 0.0620031 -0.0025 0.5
0.0883444 0.02775 0.0025 0.5
0.0883444 0.02775 -0.0025 0.5
0.0686467 0.06216 0.0025 0.5
0.0686467 0.06216 -0.0025 0.5
0.0886222 0.0269175 0.0025 0.5
0.0886222 0.0269175 -0.0025 0.5
0.0886222 0.027195 1.2044e-20 0.5
0.0687303 0.0623271 0.00174747 0.5
0.0687303 0.0623271 -0.00174747 0.5
0.0687303 0.0623271 0.0025 0.5
0.0687303 0.0623271 -0.0025 0.5
0.0886222 0.0274725 0.0025 0.5
0.0886222 0.0274725 -0.0025 0.5
0.0883444 0.02886 0.0025 0.5
0.0883444 0.02886 -0.0025 0.5
0.0886222 0.0280275 0.0025 0.5
0.0886222 0.0280275 -0.0025 0.5
0.0886222 0.028305 -8.22717e-21 0.5
0.068724 0.062715 6.07271e-20 0.5
0.0886222 0.0285825 0.0025 0.5
0.0886222 0.0285825 -0.0025 0.5
0.0687193 0.063092 -0.00169821 0.5
0.0687193 0.063092 0.00169821 0.5
0.0886222 0.0291375 0.0025 0.5
0.0886222 0.0291375 -0.0025 0.5
0.0883444 0.02997 0.0025 0.5
0.0883444 0.02997 -0.0025 0.5
0.0687193 0.063092 0.0025 0.5
0.0687193 0.063092 -0.0025 0.5
0.0686225 0.06327 0.0025 0.5
0.0686225 0.06327 -0.0025 0.5
0.0886222 0.029415 -6.85063e-19 0.5
0.0886222 0.0296925 0.0025 0.5
0.0886222 0.0296925 -0.0025 0.5
0.06871 0.0634573 0.00165644 0.5
0.06871 0.0634573 -0.00165644 0.5
0.06871 0.0634573 0.0025 0.5
0.06871 0.0634573 -0.0025 0.5
0.0886222 0.0302475 0.0025 0.5
0.0886222 0.0302475 -0.0025 0.5
0.0883444 0.03108 0.0025 0.5
0.0883444 0.03108 -0.0025 0.5
0.0886222 0.030525 6.22217e-19 0.5
0.0687053 0.063825 2.21945e-19 0.5
0.0886222 0.0308025 0.0025 0.5
0.0886222 0.0308025 -0.0025 0.5
0.0687013 0.0641841 0.00161737 0.5
0.0687013 0.0641841 -0.00161737 0.5
0.0886222 0.0313575 0.0025 0.5
0.0886222 0.0313575 -0.0025 0.5
0.0687013 0.0641841 0.0025 0.5
0.0687013 0.0641841 -0.0025 0.5
0.0883444 0.03219 0.0025 0.5
0.0883444 0.03219 -0.0025 0.5
0.0886222 0.031635 -3.88923e-21 0.5
0.0686028 0.06438 0.0025 0.5
0.0686028 0.06438 -0.0025 0.5
0.0886222 0.0319125 0.0025 0.5
0.0886222 0.0319125 -0.0025 0.5
0.0686924 0.0645849 0.00157725 0.5
0.0686924 0.0645849 -0.00157725 0.5
0.0686924 0.0645849 0.0025 0.5
0.0686924 0.0645849 -0.0025 0.5
0.0886222 0.0324675 0.0025 0.5
0.0886222 0.0324675 -0.0025 0.5
0.0883444 0.0333 0.0025 0.5
0.0883444 0.0333 -0.0025 0.5
0.0886222 0.032745 0 0.5
0.0686885 0.064935 1.96029e-19 0.5
0.0886222 0.0330225 0.0025 0.5
0.0886222 0.0330225 -0.0025 0.5
0.0686979 0.0652906 -0.00160174 0.5
0.0686979 0.0652906 0.00160174 0.5
0.0886222 0.0335775 0.0025 0.5
0.0886222 0.0335775 -0.0025 0.5
0.0686979 0.0652906 0.0025 0.5
0.0686979 0.0652906 -0.0025 0.5
0.0883444 0.03441 0.0025 0.5
0.0883444 0.03441 -0.0025 0.5
0.0886222 0.033855 0 0.5
0.0686148 0.06549 -0.0025 0.5
0.0686148 0.06549 0.0025 0.5
0.0886222 0.0341325 0.0025 0.5
0.0886222 0.0341325 -0.0025 0.5
0.0687174 0.0656699 0.00168949 0.5
0.0687174 0.0656699 -0.00168949 0.5