# f_l  POINT_DATA 1569
#  x  y  z  f_l
0.0400341 0.001665 2.01374e-20 0.5
0.0400629 0.00116786 -0.00223939 0.5
0.0400629 0.00116786 0.00223939 0.5
0.0400806 0.00103447 -0.00215976 0.5
0.0400806 0.00103447 0.00215976 0.5
0.0400629 0.00116786 0.0025 0.5
0.0400629 0.00116786 -0.0025 0.5
0.0400736 0.002775 -2.12703e-20 0.5
0.0400806 0.00103447 0.0025 0.5
0.0400806 0.00103447 -0.0025 0.5
0.0400508 0.00217424 -0.00229387 0.5
0.0400508 0.00217424 0.00229387 0.5
0.0400563 0.00227123 -0.00226922 0.5
0.0400563 0.00227123 0.00226922 0.5
0.0400508 0.00217424 0.0025 0.5
0.0400508 0.00217424 -0.0025 0.5
0.0400563 0.00227123 0.0025 0.5
0.0400563 0.00227123 -0.0025 0.5
0.0401183 0.00111 0.0025 0.5
0.0401183 0.00111 -0.0025 0.5
0.0400917 0.00222 0.0025 0.5
0.0400917 0.00222 -0.0025 0.5
0.040091 0.00324414 -0.00211326 0.5
0.040091 0.00324414 0.00211326 0.5
0.040091 0.00324414 0.0025 0.5
0.040091 0.00324414 -0.0025 0.5
0.0401033 0.00342818 -0.00205773 0.5
0.0401033 0.00342818 0.00205773 0.5
0.0401212 0.003885 1.81568e-20 0.5
0.0401033 0.00342818 0.0025 0.5
0.0401033 0.00342818 -0.0025 0.5
0.0401598 0.00333 0.0025 0.5
0.0401598 0.00333 -0.0025 0.5
0.0401408 0.00430432 -0.00188882 0.5
0.0401408 0.00430432 0.00188882 0.5
0.0403468 0.000341401 0.0025 0.5
0.0403468 0.000341401 -0.0025 0.5
0.0401408 0.00430432 0.0025 0.5
0.0401408 0.00430432 -0.0025 0.5
0.0401675 0.0046023 -0.00176891 0.5
0.0401675 0.0046023 0.00176891 0.5
0.0401875 0.004995 6.70089e-20 0.5
0.0405022 0.000355641 2.082e-22 0.5
0.0401675 0.0046023 0.0025 0.5
0.0401675 0.0046023 -0.0025 0.5
0.0402364 0.00444 0.0025 0.5
0.0402364 0.00444 -0.0025 0.5
0.0402083 0.00534694 -0.00158531 0.5
0.0402083 0.00534694 0.00158531 0.5
0.0402083 0.00534694 0.0025 0.5
0.0402083 0.00534694 -0.0025 0.5
0.0402627 0.00580736 -0.00134071 0.5
0.0402627 0.00580736 0.00134071 0.5
0.0402627 0.00580736 0.0025 0.5
0.0402627 0.00580736 -0.0025 0.5
0.040295 0.0062777 2.41308e-20 0.5
0.0403262 0.00555 0.0025 0.5
0.0403262 0.00555 -0.0025 0.5
0.0407745 0.000341401 0.0025 0.5
0.0407745 0.000341401 -0.0025 0.5
0.0403013 0.00636405 0.0025 0.5
0.0403013 0.00636405 -0.0025 0.5
0.040428 0.00666 0.0025 0.5
0.040428 0.00666 -0.0025 0.5
0.0404218 0.00720682 -3.56379e-22 0.5
0.0404093 0.00706383 0.0025 0.5
0.0404093 0.00706383 -0.0025 0.5
0.0404339 0.00734161 0.0025 0.5
0.0404339 0.00734161 -0.0025 0.5
0.0411163 0.000594172 -0.0025 0.5
0.0411163 0.000594172 0.0025 0.5
0.0405402 0.00777 0.0025 0.5
0.0405402 0.00777 -0.0025 0.5
0.0406271 0.00829609 -1.06937e-21 0.5
0.0413941 0.0002775 0.0025 0.5
0.0413941 0.0002775 -0.0025 0.5
0.0406258 0.00825987 0.0025 0.5
0.0406258 0.00825987 -0.0025 0.5
0.0406405 0.00840478 0.0025 0.5
0.0406405 0.00840478 -0.0025 0.5
0.0416719 0.0002775 0 0.5
0.0406601 0.00888 0.0025 0.5
0.0406601 0.00888 -0.0025 0.5
0.0407903 0.00920561 0.0025 0.5
0.0407903 0.00920561 -0.0025 0.5
0.0408114 0.00944962 6.59226e-22 0.5
0.0419497 0.0002775 0.0025 0.5
0.0419497 0.0002775 -0.0025 0.5
0.0408342 0.00970825 0.0025 0.5
0.0408342 0.00970825 -0.0025 0.5
0.0407849 0.00999 0.0025 0.5
0.0407849 0.00999 -0.0025 0.5
0.0409133 0.0101927 0.00158682 0.5
0.0409133 0.0101927 -0.00158682 0.5
0.0409133 0.0101927 0.0025 0.5
0.0409133 0.0101927 -0.0025 0.5
0.0409399 0.010545 -3.2726e-20 0.5
0.0422275 0.000555 -0.0025 0.5
0.0422275 0.000555 0.0025 0.5
0.0409689 0.0109528 0.00183685 0.5
0.0409689 0.0109528 -0.00183685 0.5
0.0409084 0.0111 -0.0025 0.5
0.0409084 0.0111 0.0025 0.5
0.0409689 0.0109528 0.0025 0.5
0.0409689 0.0109528 -0.0025 0.5
0.0410034 0.0112128 0.00199207 0.5
0.0410034 0.0112128 -0.00199207 0.5
0.0425053 0.0002775 0.0025 0.5
0.0425053 0.0002775 -0.0025 0.5
0.0410034 0.0112128 0.0025 0.5
0.0410034 0.0112128 -0.0025 0.5
0.0410309 0.011655 -1.74209e-19 0.5
0.0427831 0.0002775 -6.27343e-20 0.5
0.0410558 0.01221 0.0025 0.5
0.0410558 0.01221 -0.0025 0.5
0.0410793 0.0121731 -0.00233388 0.5
0.0410793 0.0121731 0.00233388 0.5
0.0410793 0.0121731 0.0025 0.5
0.0410793 0.0121731 -0.0025 0.5
0.0410857 0.0122405 0.00236264 0.5
0.0410857 0.0122405 -0.00236264 0.5
0.0410857 0.0122405 0.0025 0.5
0.0410857 0.0122405 -0.0025 0.5
0.0411163 0.0124539 -0.0025 0.5
0.0411163 0.0124539 0.0025 0.5
0.0411346 0.012765 -4.81186e-19 0.5
0.0430609 0.0002775 0.0025 0.5
0.0430609 0.0002775 -0.0025 0.5
0.0412167 0.0132197 -0.0020482 0.5
0.0412167 0.0132197 0.0020482 0.5
0.0412167 0.0132197 0.0025 0.5
0.0412167 0.0132197 -0.0025 0.5
0.0433388 0.000555 -0.0025 0.5
0.0433388 0.000555 0.0025 0.5
0.0413286 0.01332 0.0025 0.5
0.0413286 0.01332 -0.0025 0.5
0.0413289 0.0135324 -0.00154341 0.5
0.0413289 0.0135324 0.00154341 0.5
0.0413289 0.0135324 -0.0025 0.5
0.0413289 0.0135324 0.0025 0.5
0.0436166 0.0002775 0.0025 0.5
0.0436166 0.0002775 -0.0025 0.5
0.0414404 0.0140199 4.95242e-19 0.5
0.0414542 0.0140924 -0.0025 0.5
0.0414542 0.0140924 0.0025 0.5
0.0438944 0.0002775 -5.5916e-20 0.5
0.0416347 0.01443 -0.0025 0.5
0.0416347 0.01443 0.0025 0.5
0.0441722 0.0002775 0.0025 0.5
0.0441722 0.0002775 -0.0025 0.5
0.0418242 0.0149564 -2.14993e-20 0.5
0.0418091 0.014848 0.0025 0.5
0.0418091 0.014848 -0.0025 0.5
0.04445 0.000555 0.0025 0.5
0.04445 0.000555 -0.0025 0.5
0.0418726 0.0151855 0.0025 0.5
0.0418726 0.0151855 -0.0025 0.5
0.0418852 0.01554 0.0025 0.5
0.0418852 0.01554 -0.0025 0.5
0.0447278 0.0002775 0.0025 0.5
0.0447278 0.0002775 -0.0025 0.5
0.0420377 0.0157296 0.00164593 0.5
0.0420377 0.0157296 -0.00164593 0.5
0.0420377 0.0157296 0.0025 0.5
0.0420377 0.0157296 -0.0025 0.5
0.0450056 0.0002775 0 0.5
0.0420858 0.016095 -9.24791e-20 0.5
0.0421387 0.0165613 -0.00210028 0.5
0.0421387 0.0165613 0.00210028 0.5
0.0421001 0.01665 0.0025 0.5
0.0421001 0.01665 -0.0025 0.5
0.0421387 0.0165613 0.0025 0.5
0.0421387 0.0165613 -0.0025 0.5
0.0452834 0.0002775 0.0025 0.5
0.0452834 0.0002775 -0.0025 0.5
0.0421653 0.0167121 0.00222012 0.5
0.0421653 0.0167121 -0.00222012 0.5
0.0421653 0.0167121 0.0025 0.5
0.0421653 0.0167121 -0.0025 0.5
0.0422137 0.017205 2.42252e-20 0.5
0.0422275 0.017037 -0.0025 0.5
0.0422275 0.017037 0.0025 0.5
0.0455612 0.000555 -0.0025 0.5
0.0455612 0.000555 0.0025 0.5
0.0458391 0.0002775 0.0025 0.5
0.0458391 0.0002775 -0.0025 0.5
0.0423292 0.0176584 -0.00204235 0.5
0.0423292 0.0176584 0.00204235 0.5
0.0423292 0.0176584 -0.0025 0.5
0.0423292 0.0176584 0.0025 0.5
0.0424683 0.01776 0.0025 0.5
0.0424683 0.01776 -0.0025 0.5
0.0461169 0.0002775 0 0.5
0.0425924 0.0181245 0.0025 0.5
0.0425924 0.0181245 -0.0025 0.5
0.0426683 0.018312 -4.63513e-20 0.5
0.0463947 0.0002775 0.0025 0.5
0.0463947 0.0002775 -0.0025 0.5
0.0426967 0.0184013 0.0025 0.5
0.0426967 0.0184013 -0.0025 0.5
0.0466725 0.000555 -0.0025 0.5
0.0466725 0.000555 0.0025 0.5
0.0428929 0.01887 -0.0025 0.5
0.0428929 0.01887 0.0025 0.5
0.0469503 0.0002775 0.0025 0.5
0.0469503 0.0002775 -0.0025 0.5
0.0430929 0.0191156 0.0013938 0.5
0.0430929 0.0191156 -0.0013938 0.5
0.0430929 0.0191156 0.0025 0.5
0.0430929 0.0191156 -0.0025 0.5
0.0472281 0.0002775 -1.94461e-21 0.5
0.0431562 0.019425 -9.13301e-20 0.5
0.0475059 0.0002775 0.0025 0.5
0.0475059 0.0002775 -0.0025 0.5
0.0432377 0.0198791 -0.00204551 0.5
0.0432377 0.0198791 0.00204551 0.5
0.0432377 0.0198791 0.0025 0.5
0.0432377 0.0198791 -0.0025 0.5
0.0432092 0.01998 0.0025 0.5
0.0432092 0.01998 -0.0025 0.5
0.043277 0.0200417 0.00222205 0.5
0.043277 0.0200417 -0.00222205 0.5
0.043277 0.0200417 0.0025 0.5
0.043277 0.0200417 -0.0025 0.5
0.0477837 0.000555 -0.0025 0.5
0.0477837 0.000555 0.0025 0.5
0.0433388 0.0203029 0.0025 0.5
0.0433388 0.0203029 -0.0025 0.5
0.0433531 0.020535 -6.39989e-19 0.5
0.0480616 0.0002775 0.0025 0.5
0.0480616 0.0002775 -0.0025 0.5
0.0434738 0.0209551 -0.00189232 0.5
0.0434738 0.0209551 0.00189232 0.5
0.0434738 0.0209551 0.0025 0.5
0.0434738 0.0209551 -0.0025 0.5
0.0483394 0.0002775 0 0.5
0.043651 0.02109 0.0025 0.5
0.043651 0.02109 -0.0025 0.5
0.0486172 0.0002775 0.0025 0.5
0.0486172 0.0002775 -0.0025 0.5
0.048895 0.000555 -0.0025 0.5
0.048895 0.000555 0.0025 0.5
0.0439434 0.0216461 5.694e-19 0.5
0.0439314 0.021608 0.0025 0.5
0.0439314 0.021608 -0.0025 0.5
0.0439696 0.0217201 -0.0025 0.5
0.0439696 0.0217201 0.0025 0.5
0.0491728 0.0002775 0.0025 0.5
0.0491728 0.0002775 -0.0025 0.5
0.0440947 0.0222 0.0025 0.5
0.0440947 0.0222 -0.0025 0.5
0.0494506 0.0002775 0 0.5
0.0442707 0.0223791 -0.00169335 0.5
0.0442707 0.0223791 0.00169335 0.5
0.0442707 0.0223791 -0.0025 0.5
0.0442707 0.0223791 0.0025 0.5
0.0497284 0.0002775 0.0025 0.5
0.0497284 0.0002775 -0.0025 0.5
0.0443407 0.022755 2.18245e-19 0.5
0.0500063 0.000555 -0.0025 0.5
0.0500063 0.000555 0.0025 0.5
0.04445 0.0232649 0.0025 0.5
0.04445 0.0232649 -0.0025 0.5
0.0444574 0.0233026 -0.00246663 0.5
0.0444574 0.0233026 0.00246663 0.5
0.0444574 0.0233026 0.0025 0.5
0.0444574 0.0233026 -0.0025 0.5
0.0444623 0.0233223 -0.00244467 0.5
0.0444623 0.0233223 0.00244467 0.5
0.0444665 0.02331 0.0025 0.5
0.0444665 0.02331 -0.0025 0.5
0.0444623 0.0233223 0.0025 0.5
0.0444623 0.0233223 -0.0025 0.5
0.0502841 0.0002775 0.0025 0.5
0.0502841 0.0002775 -0.0025 0.5
0.0505619 0.0002775 1.91847e-21 0.5
0.0445848 0.023865 1.19855e-18 0.5
0.044683 0.0241873 -0.00145167 0.5
0.044683 0.0241873 0.00145167 0.5
0.044683 0.0241873 -0.0025 0.5
0.044683 0.0241873 0.0025 0.5
0.0508397 0.0002775 0.0025 0.5
0.0508397 0.0002775 -0.0025 0.5
0.0511175 0.000555 -0.0025 0.5
0.0511175 0.000555 0.0025 0.5
0.0449321 0.02442 -0.0025 0.5
0.0449321 0.02442 0.0025 0.5
0.0513953 0.0002775 0.0025 0.5
0.0513953 0.0002775 -0.0025 0.5
0.0451934 0.0247672 -7.97708e-19 0.5
0.0452162 0.0247646 0.0025 0.5
0.0452162 0.0247646 -0.0025 0.5
0.0516731 0.0002775 0 0.5
0.04536 0.0253289 -0.00159427 0.5
0.04536 0.0253289 0.00159427 0.5
0.0519509 0.0002775 0.0025 0.5
0.0519509 0.0002775 -0.0025 0.5
0.04536 0.0253289 0.0025 0.5
0.04536 0.0253289 -0.0025 0.5
0.0453441 0.02553 0.0025 0.5
0.0453441 0.02553 -0.0025 0.5
0.0454598 0.0256314 0.00204339 0.5
0.0454598 0.0256314 -0.00204339 0.5
0.0454598 0.0256314 0.0025 0.5
0.0454598 0.0256314 -0.0025 0.5
0.0522288 0.000555 -0.0025 0.5
0.0522288 0.000555 0.0025 0.5
0.045524 0.026085 -6.50167e-20 0.5
0.0525066 0.0002775 0.0025 0.5
0.0525066 0.0002775 -0.0025 0.5
0.0455612 0.0261899 -0.0025 0.5
0.0455612 0.0261899 0.0025 0.5
0.0527844 0.0002775 0 0.5
0.0456266 0.0265747 -0.00220596 0.5
0.0456266 0.0265747 0.00220596 0.5
0.0456266 0.0265747 0.0025 0.5
0.0456266 0.0265747 -0.0025 0.5
0.0457142 0.02664 0.0025 0.5
0.0457142 0.02664 -0.0025 0.5
0.0457173 0.0267959 0.00179781 0.5
0.0457173 0.0267959 -0.00179781 0.5
0.0457173 0.0267959 0.0025 0.5
0.0457173 0.0267959 -0.0025 0.5
0.0530622 0.0002775 0.0025 0.5
0.0530622 0.0002775 -0.0025 0.5
0.05334 0.000555 -0.0025 0.5
0.05334 0.000555 0.0025 0.5
0.0459299 0.0274023 3.70286e-21 0.5
0.0459071 0.0274045 0.0025 0.5
0.0459071 0.0274045 -0.0025 0.5
0.0536178 0.0002775 -0.0025 0.5
0.0536178 0.0002775 0.0025 0.5
0.0538956 0.0002775 0 0.5
0.0461867 0.02775 0.0025 0.5
0.0461867 0.02775 -0.0025 0.5
0.0541734 0.0002775 0.0025 0.5
0.0541734 0.0002775 -0.0025 0.5
0.0464366 0.0279856 0.00143868 0.5
0.0464366 0.0279856 -0.00143868 0.5
0.0464366 0.0279856 0.0025 0.5
0.0464366 0.0279856 -0.0025 0.5
0.0465304 0.028305 4.69821e-22 0.5
0.0544513 0.000555 -0.0025 0.5
0.0544513 0.000555 0.0025 0.5
0.0547291 0.0002775 0.0025 0.5
0.0547291 0.0002775 -0.0025 0.5
0.0465871 0.0287746 -0.00211553 0.5
0.0465871 0.0287746 0.00211553 0.5
0.0465871 0.0287746 0.0025 0.5
0.0465871 0.0287746 -0.0025 0.5
0.0465528 0.02886 0.0025 0.5
0.0465528 0.02886 -0.0025 0.5
0.0466173 0.0289151 -0.00225169 0.5
0.0466173 0.0289151 0.00225169 0.5
0.0466173 0.0289151 -0.0025 0.5
0.0466173 0.0289151 0.0025 0.5
0.0550069 0.0002775 -5.58287e-21 0.5
0.0466725 0.0291912 -0.0025 0.5
0.0466725 0.0291912 0.0025 0.5
0.0466659 0.029415 1.32398e-19 0.5
0.0552847 0.0002775 0.0025 0.5
0.0552847 0.0002775 -0.0025 0.5
0.0467848 0.0298578 -0.0019948 0.5
0.0467848 0.0298578 0.0019948 0.5
0.0467848 0.0298578 0.0025 0.5
0.0467848 0.0298578 -0.0025 0.5
0.0555625 0.000555 -0.0025 0.5
0.0555625 0.000555 0.0025 0.5
0.0469556 0.02997 -0.0025 0.5
0.0469556 0.02997 0.0025 0.5
0.0558403 0.0002775 0.0025 0.5
0.0558403 0.0002775 -0.0025 0.5
0.0561181 0.0002775 0 0.5
0.0472653 0.0305283 2.83863e-20 0.5
0.0472542 0.030499 0.0025 0.5
0.0472542 0.030499 -0.0025 0.5
0.0472893 0.0305861 0.0025 0.5
0.0472893 0.0305861 -0.0025 0.5
0.0563959 0.0002775 0.0025 0.5
0.0563959 0.0002775 -0.0025 0.5
0.0566738 0.000555 -0.0025 0.5
0.0566738 0.000555 0.0025 0.5
0.0474567 0.03108 0.0025 0.5
0.0474567 0.03108 -0.0025 0.5
0.0476324 0.0312311 0.00181918 0.5
0.0476324 0.0312311 -0.00181918 0.5
0.0569516 0.0002775 0.0025 0.5
0.0569516 0.0002775 -0.0025 0.5
0.0476324 0.0312311 0.0025 0.5
0.0476324 0.0312311 -0.0025 0.5
0.0572294 0.0002775 0 0.5
0.0477173 0.031635 7.31907e-19 0.5
0.0575072 0.0002775 0.0025 0.5
0.0575072 0.0002775 -0.0025 0.5
0.0477765 0.0321828 0.00246749 0.5
0.0477765 0.0321828 -0.00246749 0.5
0.0477765 0.0321828 0.0025 0.5
0.0477765 0.0321828 -0.0025 0.5
0.0477717 0.03219 0.0025 0.5
0.0477717 0.03219 -0.0025 0.5
0.0477781 0.0321957 0.00247436 0.5
0.0477781 0.0321957 -0.00247436 0.5
0.0477781 0.0321957 0.0025 0.5
0.0477781 0.0321957 -0.0025 0.5
0.0477838 0.0322214 0.0025 0.5
0.0477838 0.0322214 -0.0025 0.5
0.057785 0.000555 -0.0025 0.5
0.057785 0.000555 0.0025 0.5
0.0478361 0.032745 -5.40429e-19 0.5
0.0580628 0.0002775 0.0025 0.5
0.0580628 0.0002775 -0.0025 0.5
0.0479508 0.0331331 -0.00174842 0.5
0.0479508 0.0331331 0.00174842 0.5
0.0479508 0.0331331 -0.0025 0.5
0.0479508 0.0331331 0.0025 0.5
0.0583406 0.0002775 0 0.5
0.0481792 0.0333 0.0025 0.5
0.0481792 0.0333 -0.0025 0.5
0.0586184 0.0002775 0.0025 0.5
0.0586184 0.0002775 -0.0025 0.5
0.0588963 0.000555 -0.0025 0.5
0.0588963 0.000555 0.0025 0.5
0.0484805 0.0337081 2.70556e-21 0.5
0.0484953 0.0336993 0.0025 0.5
0.0484953 0.0336993 -0.0025 0.5
0.0591741 0.0002775 0.0025 0.5
0.0591741 0.0002775 -0.0025 0.5
0.0486275 0.0341428 -0.00129658 0.5
0.0486275 0.0341428 0.00129658 0.5
0.0594519 0.0002775 -7.45167e-21 0.5
0.0486275 0.0341428 0.0025 0.5
0.0486275 0.0341428 -0.0025 0.5
0.0486359 0.03441 0.0025 0.5
0.0486359 0.03441 -0.0025 0.5
0.0597297 0.0002775 0.0025 0.5
0.0597297 0.0002775 -0.0025 0.5
0.0487715 0.0345333 0.00194438 0.5
0.0487715 0.0345333 -0.00194438 0.5
0.0487715 0.0345333 0.0025 0.5
0.0487715 0.0345333 -0.0025 0.5
0.0600075 0.000555 -0.0025 0.5
0.0600075 0.000555 0.0025 0.5
0.0488387 0.034965 0 0.5
0.0602853 0.0002775 0.0025 0.5
0.0602853 0.0002775 -0.0025 0.5
0.0488654 0.0354904 -0.00236661 0.5
0.0488654 0.0354904 0.00236661 0.5
0.0488654 0.0354904 0.0025 0.5
0.0488654 0.0354904 -0.0025 0.5
0.0488439 0.03552 0.0025 0.5
0.0488439 0.03552 -0.0025 0.5
0.0488706 0.0355444 0.00239007 0.5
0.0488706 0.0355444 -0.00239007 0.5
0.0488706 0.0355444 0.0025 0.5
0.0488706 0.0355444 -0.0025 0.5
0.0605631 0.0002775 -9.93434e-23 0.5
0.048895 0.0357286 -0.0025 0.5
0.048895 0.0357286 0.0025 0.5
0.048895 0.036075 0 0.5
0.0608409 0.0002775 0.0025 0.5
0.0608409 0.0002775 -0.0025 0.5
0.0489871 0.036538 -0.0020855 0.5
0.0489871 0.036538 0.0020855 0.5
0.0489871 0.036538 0.0025 0.5
0.0489871 0.036538 -0.0025 0.5
0.0611187 0.000555 -0.0025 0.5
0.0611187 0.000555 0.0025 0.5
0.0491159 0.03663 0.0025 0.5
0.0491159 0.03663 -0.0025 0.5
0.0613966 0.0002775 -0.0025 0.5
0.0613966 0.0002775 0.0025 0.5
0.0491685 0.0369032 -0.00126927 0.5
0.0491685 0.0369032 0.00126927 0.5
0.0491685 0.0369032 0.0025 0.5
0.0491685 0.0369032 -0.0025 0.5
0.0616744 0.0002775 0 0.5
0.0493238 0.0373291 2.18818e-21 0.5
0.0493076 0.0373278 0.0025 0.5
0.0493076 0.0373278 -0.0025 0.5
0.0619522 0.0002775 -0.0025 0.5
0.0619522 0.0002775 0.0025 0.5
0.06223 0.000555 -0.0025 0.5
0.06223 0.000555 0.0025 0.5
0.0495522 0.03774 0.0025 0.5
0.0495522 0.03774 -0.0025 0.5
0.0625078 0.0002775 0.0025 0.5
0.0625078 0.0002775 -0.0025 0.5
0.0497744 0.0379716 0.00145694 0.5
0.0497744 0.0379716 -0.00145694 0.5
0.0497744 0.0379716 -0.0025 0.5
0.0497744 0.0379716 0.0025 0.5
0.0627856 0.0002775 3.76374e-21 0.5
0.0498544 0.038295 3.16309e-20 0.5
0.0630634 0.0002775 -0.0025 0.5
0.0630634 0.0002775 0.0025 0.5
0.0499069 0.0387508 0.00205305 0.5
0.0499069 0.0387508 -0.00205305 0.5
0.0499069 0.0387508 -0.0025 0.5
0.0499069 0.0387508 0.0025 0.5
0.0498682 0.03885 0.0025 0.5
0.0498682 0.03885 -0.0025 0.5
0.0499409 0.0389153 0.00220604 0.5
0.0499409 0.0389153 -0.00220604 0.5
0.0499409 0.0389153 0.0025 0.5
0.0499409 0.0389153 -0.0025 0.5
0.0633413 0.000555 -0.0025 0.5
0.0633413 0.000555 0.0025 0.5
0.0499868 0.039405 0 0.5
0.0636191 0.0002775 0.0025 0.5
0.0636191 0.0002775 -0.0025 0.5
0.0638969 0.0002775 -5.95927e-22 0.5
0.0499964 0.0399501 0.00245546 0.5
0.0499964 0.0399501 -0.00245546 0.5
0.0499875 0.03996 0.0025 0.5
0.0499875 0.03996 -0.0025 0.5
0.0499964 0.0399501 0.0025 0.5
0.0499964 0.0399501 -0.0025 0.5
0.049997 0.0399692 0.00245842 0.5
0.049997 0.0399692 -0.00245842 0.5
0.049997 0.0399692 0.0025 0.5
0.049997 0.0399692 -0.0025 0.5
0.0500063 0.0400812 -0.0025 0.5
0.0500063 0.0400812 0.0025 0.5
0.0641747 0.0002775 0.0025 0.5
0.0641747 0.0002775 -0.0025 0.5
0.0500063 0.040515 -2.48412e-20 0.5
0.0644525 0.000555 -0.0025 0.5
0.0644525 0.000555 0.0025 0.5
0.0500736 0.0410027 -0.00219697 0.5
0.0500736 0.0410027 0.00219697 0.5
0.0500736 0.0410027 0.0025 0.5
0.0500736 0.0410027 -0.0025 0.5
0.0647303 0.0002775 0.0025 0.5
0.0647303 0.0002775 -0.0025 0.5
0.0501595 0.04107 0.0025 0.5
0.0501595 0.04107 -0.0025 0.5
0.050137 0.0412006 -0.00191177 0.5
0.050137 0.0412006 0.00191177 0.5
0.050137 0.0412006 0.0025 0.5
0.050137 0.0412006 -0.0025 0.5
0.0650081 0.0002775 0 0.5
0.0652859 0.0002775 0.0025 0.5
0.0652859 0.0002775 -0.0025 0.5
0.050263 0.041809 0 0.5
0.0502856 0.041901 0.0025 0.5
0.0502856 0.041901 -0.0025 0.5
0.0655638 0.000555 -0.0025 0.5
0.0655638 0.000555 0.0025 0.5
0.0505099 0.04218 0.0025 0.5
0.0505099 0.04218 -0.0025 0.5
0.0658416 0.0002775 0.0025 0.5
0.0658416 0.0002775 -0.0025 0.5
0.0661194 0.0002775 -1.81913e-21 0.5
0.0507414 0.0425556 0.0025 0.5
0.0507414 0.0425556 -0.0025 0.5
0.0507687 0.0427096 0 0.5
0.0663972 0.0002775 0.0025 0.5
0.0663972 0.0002775 -0.0025 0.5
0.0508381 0.043011 0.0025 0.5
0.0508381 0.043011 -0.0025 0.5
0.066675 0.000555 -0.0025 0.5
0.066675 0.000555 0.0025 0.5
0.0508241 0.04329 -0.0025 0.5
0.0508241 0.04329 0.0025 0.5
0.0509626 0.0434447 0.00180308 0.5
0.0509626 0.0434447 -0.00180308 0.5
0.0669528 0.0002775 0.0025 0.5
0.0669528 0.0002775 -0.0025 0.5
0.0509626 0.0434447 0.0025 0.5
0.0509626 0.0434447 -0.0025 0.5
0.0672306 0.0002775 9.10876e-20 0.5
0.0510128 0.043845 -1.65386e-19 0.5
0.0675084 0.0002775 0.0025 0.5
0.0675084 0.0002775 -0.0025 0.5
0.0510448 0.0443274 -0.00217285 0.5
0.0510448 0.0443274 0.00217285 0.5
0.0510448 0.0443274 0.0025 0.5
0.0510448 0.0443274 -0.0025 0.5
0.0510032 0.0444 0.0025 0.5
0.0510032 0.0444 -0.0025 0.5
0.0510608 0.0444566 0.00224509 0.5
0.0510608 0.0444566 -0.00224509 0.5
0.0510608 0.0444566 0.0025 0.5
0.0510608 0.0444566 -0.0025 0.5
0.0677863 0.000555 -0.0025 0.5
0.0677863 0.000555 0.0025 0.5
0.05109 0.044955 -2.60706e-20 0.5
0.0680641 0.0002775 0.0025 0.5
0.0680641 0.0002775 -0.0025 0.5
0.0683419 0.0002775 1.14121e-19 0.5
0.0511019 0.0454944 -0.00242965 0.5
0.0511019 0.0454944 0.00242965 0.5
0.0511019 0.0454944 0.0025 0.5
0.0511019 0.0454944 -0.0025 0.5
0.0510884 0.04551 0.0025 0.5
0.0510884 0.04551 -0.0025 0.5
0.0511032 0.0455243 0.00243545 0.5
0.0511032 0.0455243 -0.00243545 0.5
0.0511032 0.0455243 0.0025 0.5
0.0511032 0.0455243 -0.0025 0.5
0.0686197 0.0002775 0.0025 0.5
0.0686197 0.0002775 -0.0025 0.5
0.0511145 0.046065 0 0.5
0.0688975 0.000555 -0.0025 0.5
0.0688975 0.000555 0.0025 0.5
0.0691753 0.0002775 0.0025 0.5
0.0691753 0.0002775 -0.0025 0.5
0.051116 0.0466185 -0.00249334 0.5
0.051116 0.0466185 0.00249334 0.5
0.0511146 0.04662 0.0025 0.5
0.0511146 0.04662 -0.0025 0.5
0.051116 0.0466185 0.0025 0.5
0.051116 0.0466185 -0.0025 0.5
0.051116 0.0466215 0.00249341 0.5
0.051116 0.0466215 -0.00249341 0.5
0.051116 0.0466215 0.0025 0.5
0.051116 0.0466215 -0.0025 0.5
0.0694531 0.0002775 9.36031e-20 0.5
0.0511175 0.047175 0 0.5
0.0697309 0.0002775 0.0025 0.5
0.0697309 0.0002775 -0.0025 0.5
0.0511175 0.04773 0.0025 0.5
0.0511175 0.04773 -0.0025 0.5
0.0700088 0.000555 -0.0025 0.5
0.0700088 0.000555 0.0025 0.5
0.0511175 0.048285 -7.15119e-20 0.5
0.0702866 0.0002775 0.0025 0.5
0.0702866 0.0002775 -0.0025 0.5
0.0705644 0.0002775 2.66209e-19 0.5
0.0511394 0.0488181 -0.00240151 0.5
0.0511394 0.0488181 0.00240151 0.5
0.0511394 0.0488181 0.0025 0.5
0.0511394 0.0488181 -0.0025 0.5
0.0511435 0.048866 -0.00238309 0.5
0.0511435 0.048866 0.00238309 0.5
0.0511631 0.04884 0.0025 0.5
0.0511631 0.04884 -0.0025 0.5
0.0511435 0.048866 0.0025 0.5
0.0511435 0.048866 -0.0025 0.5
0.0708422 0.0002775 0.0025 0.5
0.0708422 0.0002775 -0.0025 0.5
0.0511671 0.049395 0 0.5
0.07112 0.000555 -0.0025 0.5
0.07112 0.000555 0.0025 0.5
0.0713978 0.0002775 0.0025 0.5
0.0713978 0.0002775 -0.0025 0.5
0.0512007 0.0498669 -0.00212572 0.5
0.0512007 0.0498669 0.00212572 0.5
0.0512007 0.0498669 0.0025 0.5
0.0512007 0.0498669 -0.0025 0.5
0.0512811 0.04995 0.0025 0.5
0.0512811 0.04995 -0.0025 0.5
0.0512307 0.0500631 -0.00199067 0.5
0.0512307 0.0500631 0.00199067 0.5
0.0512307 0.0500631 0.0025 0.5
0.0512307 0.0500631 -0.0025 0.5
0.0716756 0.0002775 9.36031e-20 0.5
0.0512673 0.050505 5.22312e-20 0.5
0.0719534 0.0002775 0.0025 0.5
0.0719534 0.0002775 -0.0025 0.5
0.0512845 0.0508932 -0.00174847 0.5
0.0512845 0.0508932 0.00174847 0.5
0.0722313 0.000555 -0.0025 0.5
0.0722313 0.000555 0.0025 0.5
0.0512845 0.0508932 -0.0025 0.5
0.0512845 0.0508932 0.0025 0.5
0.0513923 0.05106 -0.0025 0.5
0.0513923 0.05106 0.0025 0.5
0.0513187 0.051261 -0.0015948 0.5
0.0513187 0.051261 0.0015948 0.5
0.0725091 0.0002775 0.0025 0.5
0.0725091 0.0002775 -0.0025 0.5
0.0513187 0.051261 0.0025 0.5
0.0513187 0.051261 -0.0025 0.5
0.0727869 0.0002775 1.145e-19 0.5
0.0513359 0.051615 2.21416e-18 0.5
0.051344 0.0519437 -0.0014808 0.5
0.051344 0.0519437 0.0014808 0.5
0.051344 0.0519437 -0.0025 0.5
0.051344 0.0519437 0.0025 0.5
0.0730647 0.0002775 0.0025 0.5
0.0730647 0.0002775 -0.0025 0.5
0.0514507 0.05217 0.0025 0.5
0.0514507 0.05217 -0.0025 0.5
0.0733425 0.000555 -0.0025 0.5
0.0733425 0.000555 0.0025 0.5
0.0513681 0.0524203 -0.00137246 0.5
0.0513681 0.0524203 0.00137246 0.5
0.0513681 0.0524203 -0.0025 0.5
0.0513681 0.0524203 0.0025 0.5
0.051376 0.052725 -1.93383e-18 0.5
0.0736203 0.0002775 0.0025 0.5
0.0736203 0.0002775 -0.0025 0.5
0.0513781 0.0530197 0.00132752 0.5
0.0513781 0.0530197 -0.00132752 0.5
0.0513781 0.0530197 0.0025 0.5
0.0513781 0.0530197 -0.0025 0.5
0.0738981 0.0002775 1.12679e-19 0.5
0.0514757 0.05328 0.0025 0.5
0.0514757 0.05328 -0.0025 0.5
0.0741759 0.0002775 0.0025 0.5
0.0741759 0.0002775 -0.0025 0.5
0.0513856 0.0535478 -0.00129354 0.5
0.0513856 0.0535478 0.00129354 0.5
0.0513856 0.0535478 0.0025 0.5
0.0513856 0.0535478 -0.0025 0.5
0.0513877 0.053835 -5.52593e-18 0.5
0.0744538 0.000555 -0.0025 0.5
0.0744538 0.000555 0.0025 0.5
0.0513851 0.0541227 0.00129597 0.5
0.0513851 0.0541227 -0.00129597 0.5
0.0513851 0.0541227 0.0025 0.5
0.0513851 0.0541227 -0.0025 0.5
0.0747316 0.0002775 0.0025 0.5
0.0747316 0.0002775 -0.0025 0.5
0.0514743 0.05439 0.0025 0.5
0.0514743 0.05439 -0.0025 0.5
0.0750094 0.0002775 1.14375e-19 0.5
0.0513757 0.0546479 0.00133843 0.5
0.0513757 0.0546479 -0.00133843 0.5
0.0513757 0.0546479 0.0025 0.5
0.0513757 0.0546479 -0.0025 0.5
0.051373 0.054945 5.49064e-18 0.5
0.0752872 0.0002775 0.0025 0.5
0.0752872 0.0002775 -0.0025 0.5
0.0513664 0.0552514 -0.00138004 0.5
0.0513664 0.0552514 0.00138004 0.5
0.0513664 0.0552514 0.0025 0.5
0.0513664 0.0552514 -0.0025 0.5
0.075565 0.000555 -0.0025 0.5
0.075565 0.000555 0.0025 0.5
0.0514512 0.0555 0.0025 0.5
0.0514512 0.0555 -0.0025 0.5
0.0513463 0.0557285 -0.00147062 0.5
0.0513463 0.0557285 0.00147062 0.5
0.0513463 0.0557285 -0.0025 0.5
0.0513463 0.0557285 0.0025 0.5
0.0758428 0.0002775 0.0025 0.5
0.0758428 0.0002775 -0.0025 0.5
0.0513395 0.056055 -3.13794e-19 0.5
0.0761206 0.0002775 1.14623e-19 0.5
0.051329 0.0563988 0.0015485 0.5
0.051329 0.0563988 -0.0015485 0.5
0.051329 0.0563988 -0.0025 0.5
0.051329 0.0563988 0.0025 0.5
0.0763984 0.0002775 0.0025 0.5
0.0763984 0.0002775 -0.0025 0.5
0.0514104 0.05661 0.0025 0.5
0.0514104 0.05661 -0.0025 0.5
0.0513052 0.0567975 0.00165547 0.5
0.0513052 0.0567975 -0.00165547 0.5
0.0513052 0.0567975 0.0025 0.5
0.0513052 0.0567975 -0.0025 0.5
0.0766763 0.000555 -0.0025 0.5
0.0766763 0.000555 0.0025 0.5
0.0512946 0.057165 -1.3012e-18 0.5
0.0769541 0.0002775 0.0025 0.5
0.0769541 0.0002775 -0.0025 0.5
0.051279 0.0575587 0.00177325 0.5
0.051279 0.0575587 -0.00177325 0.5
0.051279 0.0575587 0.0025 0.5
0.051279 0.0575587 -0.0025 0.5
0.0772319 0.0002775 1.08196e-19 0.5
0.0513528 0.05772 0.0025 0.5
0.0513528 0.05772 -0.0025 0.5
0.0512562 0.0578586 -0.00187573 0.5
0.0512562 0.0578586 0.00187573 0.5
0.0512562 0.0578586 0.0025 0.5
0.0512562 0.0578586 -0.0025 0.5
0.0775097 0.0002775 0.0025 0.5
0.0775097 0.0002775 -0.0025 0.5
0.051241 0.058275 -1.82344e-18 0.5
0.0777875 0.000555 -0.0025 0.5
0.0777875 0.000555 0.0025 0.5
0.0512203 0.0587274 0.00203766 0.5
0.0512203 0.0587274 -0.00203766 0.5
0.0512203 0.0587274 0.0025 0.5
0.0512203 0.0587274 -0.0025 0.5
0.0512779 0.05883 0.0025 0.5
0.0512779 0.05883 -0.0025 0.5
0.0512037 0.0589161 0.00211217 0.5
0.0512037 0.0589161 -0.00211217 0.5
0.0512037 0.0589161 0.0025 0.5
0.0512037 0.0589161 -0.0025 0.5
0.0780653 0.0002775 0.0025 0.5
0.0780653 0.0002775 -0.0025 0.5
0.0783431 0.0002775 8.26565e-20 0.5
0.051184 0.059385 3.45973e-18 0.5
0.0786209 0.0002775 0.0025 0.5
0.0786209 0.0002775 -0.0025 0.5
0.0511558 0.0599017 -0.00232758 0.5
0.0511558 0.0599017 0.00232758 0.5
0.0511558 0.0599017 0.0025 0.5
0.0511558 0.0599017 -0.0025 0.5
0.0511486 0.0599711 -0.00235986 0.5
0.0511486 0.0599711 0.00235986 0.5
0.0511822 0.05994 0.0025 0.5
0.0511822 0.05994 -0.0025 0.5
0.0511486 0.0599711 0.0025 0.5
0.0511486 0.0599711 -0.0025 0.5
0.0788988 0.000555 -0.0025 0.5
0.0788988 0.000555 0.0025 0.5
0.0511229 0.060495 2.37299e-18 0.5
0.0791766 0.0002775 0.0025 0.5
0.0791766 0.0002775 -0.0025 0.5
0.0794544 0.0002775 9.54222e-20 0.5
0.0511202 0.0610473 -0.00248781 0.5
0.0511202 0.0610473 0.00248781 0.5
0.0511202 0.0610473 -0.0025 0.5
0.0511202 0.0610473 0.0025 0.5
0.0511202 0.0610527 -0.00248804 0.5
0.0511202 0.0610527 0.00248804 0.5
0.0511228 0.06105 0.0025 0.5
0.0511228 0.06105 -0.0025 0.5
0.0511202 0.0610527 -0.0025 0.5
0.0511202 0.0610527 0.0025 0.5
0.0797322 0.0002775 0.0025 0.5
0.0797322 0.0002775 -0.0025 0.5
0.08001 0.000555 -0.0025 0.5
0.08001 0.000555 0.0025 0.5
0.0511175 0.061605 -2.66915e-18 0.5
0.0802878 0.0002775 0.0025 0.5
0.0802878 0.0002775 -0.0025 0.5
0.0511175 0.06216 0 0.5
0.0511175 0.06216 0.0025 0.5
0.0511175 0.06216 -0.0025 0.5
0.0805656 0.0002775 1.15842e-19 0.5
0.0808434 0.0002775 0.0025 0.5
0.0808434 0.0002775 -0.0025 0.5
0.0511175 0.062715 0 0.5
0.0811213 0.000555 -0.0025 0.5
0.0811213 0.000555 0.0025 0.5
0.0511157 0.0632682 -0.00249169 0.5
0.0511157 0.0632682 0.00249169 0.5
0.0511157 0.0632682 0.0025 0.5
0.0511157 0.0632682 -0.0025 0.5
0.0511138 0.06327 0.0025 0.5
0.0511138 0.06327 -0.0025 0.5
0.0511156 0.0632719 0.00249157 0.5
0.0511156 0.0632719 -0.00249157 0.5
0.0511156 0.0632719 0.0025 0.5
0.0511156 0.0632719 -0.0025 0.5
0.0813991 0.0002775 0.0025 0.5
0.0813991 0.0002775 -0.0025 0.5
0.0816769 0.0002775 9.5745e-20 0.5
0.0511138 0.063825 2.50081e-20 0.5
0.0819547 0.0002775 0.0025 0.5
0.0819547 0.0002775 -0.0025 0.5
0.0511113 0.0643738 -0.00247199 0.5
0.0511113 0.0643738 0.00247199 0.5
0.0511113 0.0643738 0.0025 0.5
0.0511113 0.0643738 -0.0025 0.5
0.0511051 0.06438 0.0025 0.5
0.0511051 0.06438 -0.0025 0.5
0.0511112 0.0643863 0.00247148 0.5
0.0511112 0.0643863 -0.00247148 0.5
0.0511112 0.0643863 0.0025 0.5
0.0511112 0.0643863 -0.0025 0.5
0.0822325 0.000555 -0.0025 0.5
0.0822325 0.000555 0.0025 0.5
0.0825103 0.0002775 0.0025 0.5
0.0825103 0.0002775 -0.0025 0.5
0.0511086 0.064935 2.52371e-20 0.5
0.0827881 0.0002775 8.32524e-20 0.5
0.0511077 0.0654802 0.00245585 0.5
0.0511077 0.0654802 -0.00245585 0.5
0.0511077 0.0654802 0.0025 0.5
0.0511077 0.0654802 -0.0025 0.5
0.0510981 0.06549 0.0025 0.5
0.0510981 0.06549 -0.0025 0.5
0.0830659 0.0002775 0.0025 0.5
0.0830659 0.0002775 -0.0025 0.5
0.0511076 0.0654999 0.00245553 0.5
0.0511076 0.0654999 -0.00245553 0.5
0.0511076 0.0654999 0.0025 0.5
0.0511076 0.0654999 -0.0025 0.5
0.0511175 0.065509 -0.0025 0.5
0.0511175 0.065509 0.0025 0.5
0.0833437 0.000555 -0.0025 0.5
0.0833437 0.000555 0.0025 0.5
0.0511067 0.066045 2.53261e-20 0.5
0.0836216 0.0002775 0.0025 0.5
0.0836216 0.0002775 -0.0025 0.5
0.0838994 0.0002775 3.228e-22 0.5
0.0513953 0.0663225 0.0025 0.5
0.0513953 0.0663225 -0.0025 0.5
0.0516731 0.0663225 0 0.5
0.0841772 0.0002775 0.0025 0.5
0.0841772 0.0002775 -0.0025 0.5
0.0522288 0.066045 -0.0025 0.5
0.0522288 0.066045 0.0025 0.5
0.0519509 0.0663225 0.0025 0.5
0.0519509 0.0663225 -0.0025 0.5
0.084455 0.000555 -0.0025 0.5
0.084455 0.000555 0.0025 0.5
0.0525066 0.0663225 0.0025 0.5
0.0525066 0.0663225 -0.0025 0.5
0.0527844 0.0663225 0 0.5
0.0847328 0.0002775 0.0025 0.5
0.0847328 0.0002775 -0.0025 0.5
0.05334 0.066045 -0.0025 0.5
0.05334 0.066045 0.0025 0.5
0.0530622 0.0663225 0.0025 0.5
0.0530622 0.0663225 -0.0025 0.5
0.0850106 0.0002775 0 0.5
0.0536178 0.0663225 0.0025 0.5
0.0536178 0.0663225 -0.0025 0.5
0.0852884 0.0002775 0.0025 0.5
0.0852884 0.0002775 -0.0025 0.5
0.0538956 0.0663225 0 0.5
0.0855663 0.000555 -0.0025 0.5
0.0855663 0.000555 0.0025 0.5
0.0544513 0.066045 -0.0025 0.5
0.0544513 0.066045 0.0025 0.5
0.0541734 0.0663225 0.0025 0.5
0.0541734 0.0663225 -0.0025 0.5
0.0858441 0.0002775 0.0025 0.5
0.0858441 0.0002775 -0.0025 0.5
0.0547291 0.0663225 0.0025 0.5
0.0547291 0.0663225 -0.0025 0.5
0.0861219 0.0002775 0 0.5
0.0550069 0.0663225 0 0.5
0.0555625 0.066045 -0.0025 0.5
0.0555625 0.066045 0.0025 0.5
0.0552847 0.0663225 0.0025 0.5
0.0552847 0.0663225 -0.0025 0.5
0.0863997 0.0002775 0.0025 0.5
0.0863997 0.0002775 -0.0025 0.5
0.0866775 0.000555 -0.0025 0.5
0.0866775 0.000555 0.0025 0.5
0.0558403 0.0663225 0.0025 0.5
0.0558403 0.0663225 -0.0025 0.5
0.0561181 0.0663225 0 0.5
0.0869553 0.0002775 0.0025 0.5
0.0869553 0.0002775 -0.0025 0.5
0.0566738 0.066045 -0.0025 0.5