0 	0 	0 	0
0.000446734 	-3.94726e-06 	-3.95703e-05 	9.76851e-26
0.000893467 	-7.89451e-06 	-7.91406e-05 	1.9537e-25
0.0013402 	-9.38225e-06 	-0.000100413 	3.43201e-25
0.00178693 	-8.53045e-06 	-0.000104279 	5.38731e-25
0.00223367 	-7.27653e-06 	-0.00010708 	7.26922e-25
0.0026804 	9.65995e-06 	-6.83179e-05 	6.28872e-25
0.00312714 	2.65964e-05 	-2.95562e-05 	5.30822e-25
0.00357387 	5.79914e-05 	3.25654e-05 	3.29102e-25
0.0040206 	0.000101827 	0.000114787 	3.81778e-26
0.00446734 	0.000147496 	0.000199072 	-2.40497e-25
0.00491407 	0.000227979 	0.000322542 	-2.86434e-25
0.0053608 	0.000308462 	0.000446011 	-3.32371e-25
0.00580754 	0.000413502 	0.000589452 	-2.22336e-25
0.00625427 	0.000537643 	0.000748426 	9.00854e-27
0.00670101 	0.000665264 	0.0009093 	2.39954e-25
0.00714774 	0.000835812 	0.00109361 	4.65978e-25
0.00759447 	0.00100636 	0.00127791 	6.92002e-25
0.00804121 	0.00120266 	0.00146878 	7.05365e-25
0.00848794 	0.00141704 	0.00166425 	5.69414e-25
0.00893467 	0.00163505 	0.00185923 	4.42706e-25
0.00938141 	0.00188568 	0.00204985 	3.99189e-25
0.00982814 	0.00213631 	0.00224046 	3.55672e-25
0.0102749 	0.00240248 	0.002419 	5.1215e-25
0.0107216 	0.00267848 	0.00258989 	7.95155e-25
0.0111683 	0.00295618 	0.00275691 	1.02001e-24
0.0116151 	0.00324572 	0.00289684 	8.37767e-25
0.0120618 	0.00353526 	0.00303676 	6.5553e-25
0.0125085 	0.00382654 	0.00315285 	2.77792e-25
0.0129553 	0.00411882 	0.00325537 	-2.11113e-25
0.013402 	0.00441022 	0.00335201 	-6.52102e-25
0.0138487 	0.00469667 	0.00341533 	-8.21572e-25
0.0142955 	0.00498312 	0.00347865 	-9.91043e-25
0.0147422 	0.00526175 	0.0035172 	-9.09645e-25
0.0151889 	0.00553638 	0.00354313 	-7.00447e-25
0.0156357 	0.00580829 	0.00356324 	-4.48871e-25
0.0160824 	0.00606741 	0.0035559 	2.49034e-27
0.0165291 	0.00632652 	0.00354855 	4.53851e-25
0.0169759 	0.00657365 	0.00352192 	5.92633e-25
0.0174226 	0.00681532 	0.00348653 	5.89334e-25
0.0178693 	0.00705338 	0.00344662 	5.39523e-25
0.0183161 	0.00727693 	0.00338865 	3.03666e-25
0.0187628 	0.00750049 	0.00333068 	6.78089e-26
0.0192095 	0.0077112 	0.00326031 	0
0.0196563 	0.00791674 	0.00318494 	0
0.020103 	0.00811835 	0.00310668 	-5.54845e-26
0.0205497 	0.00830643 	0.00301848 	-3.02082e-25
0.0209965 	0.00849451 	0.00293028 	-5.4868e-25
0.0214432 	0.00867033 	0.00283549 	-8.83226e-25
0.0218899 	0.00884179 	0.00273835 	-1.24908e-24
0.0223367 	0.00900933 	0.00263976 	-1.50568e-24
0.0227834 	0.00916511 	0.00253683 	-1.43454e-24
0.0232302 	0.0093209 	0.00243391 	-1.3634e-24
0.0236769 	0.00946548 	0.00232846 	-9.23649e-25
0.0241236 	0.00960658 	0.00222224 	-3.69089e-25
0.0245704 	0.0097439 	0.00211562 	1.47566e-25
0.0250171 	0.00987126 	0.00200798 	5.64286e-25
0.0254638 	0.00999862 	0.00190034 	9.81007e-25
0.0259106 	0.0101159 	0.00179266 	1.0156e-24
0.0263573 	0.0102304 	0.00168498 	9.47073e-25
0.026804 	0.0103413 	0.00157756 	8.62203e-25
0.0272508 	0.0104437 	0.00147077 	7.39196e-25
0.0276975 	0.0105462 	0.00136399 	6.16188e-25
0.0281442 	0.0106393 	0.00125843 	6.37307e-25
0.028591 	0.0107303 	0.00115315 	6.91686e-25
0.0290377 	0.0108178 	0.00104848 	6.73033e-25
0.0294844 	0.0108979 	0.000945072 	5.02698e-25
0.0299312 	0.010978 	0.000841662 	3.32364e-25
0.0303779 	0.0110493 	0.00073996 	-7.39472e-26
0.0308246 	0.0111188 	0.000638589 	-5.26044e-25
0.0312714 	0.0111847 	0.000537951 	-8.01679e-25
0.0317181 	0.011244 	0.000438674 	-7.49599e-25
0.0321648 	0.0113032 	0.000339396 	-6.97519e-25
0.0326116 	0.0113536 	0.000241913 	-2.174e-25
0.0330583 	0.0114027 	0.000144716 	3.30957e-25
0.033505 	0.0114479 	4.82831e-05 	7.13303e-25
0.0339518 	0.0114867 	-4.68779e-05 	8.18963e-25
0.0343985 	0.0115256 	-0.000142039 	9.24623e-25
0.0348452 	0.0115554 	-0.000235416 	6.04093e-25
0.035292 	0.011584 	-0.000328566 	2.29539e-25
0.0357387 	0.0116085 	-0.000420898 	2.22395e-26
0.0361854 	0.0116268 	-0.000512 	6.58233e-26
0.0366322 	0.0116451 	-0.000603102 	1.09407e-25
0.0370789 	0.0116538 	-0.000692224 	4.78587e-25
0.0375256 	0.0116617 	-0.000781157 	8.78989e-25
0.0379724 	0.011665 	-0.000869074 	1.02422e-24
0.0384191 	0.0116621 	-0.000955616 	8.24225e-25
0.0388658 	0.0116593 	-0.00104216 	6.24228e-25
0.0393126 	0.0116462 	-0.00112614 	1.36107e-26
0.0397593 	0.0116325 	-0.00120994 	-6.24381e-25
0.040206 	0.0116137 	-0.0012923 	-1.01712e-24
0.0406528 	0.0115887 	-0.00137287 	-1.1101e-24
0.0410995 	0.0115638 	-0.00145345 	-1.20308e-24
0.0415462 	0.0115277 	-0.00153029 	-9.22846e-25
0.041993 	0.0114911 	-0.00160699 	-6.28071e-25
0.0424397 	0.0114489 	-0.00168143 	-4.26818e-25
0.0428864 	0.0114002 	-0.0017534 	-3.2893e-25
0.0433332 	0.0113516 	-0.00182536 	-2.31043e-25
0.0437799 	0.0112903 	-0.00189162 	-1.83858e-25
0.0442266 	0.011229 	-0.00195782 	-1.37315e-25
0.0446734 	0.0111608 	-0.0020205 	-9.11197e-26
0.0451201 	0.0110858 	-0.00207968 	-4.52733e-26
0.0455668 	0.0110106 	-0.00213876 	1.64146e-27
0.0460136 	0.0109211 	-0.00218953 	1.32958e-25
0.0464603 	0.0108316 	-0.0022403 	2.64274e-25
0.046907 	0.010734 	-0.00228588 	5.05864e-25
0.0473538 	0.010629 	-0.00232675 	8.47225e-25
0.0478005 	0.0105234 	-0.00236719 	1.17398e-24
0.0482472 	0.010402 	-0.0023967 	1.12586e-24
0.048694 	0.0102807 	-0.00242621 	1.07773e-24
0.0491407 	0.0101501 	-0.00244876 	8.4891e-25
0.0495874 	0.0100119 	-0.00246562 	4.72238e-25
0.0500342 	0.00987262 	-0.00248164 	1.18965e-25
0.0504809 	0.00971763 	-0.00248493 	1.16683e-25
0.0509276 	0.00956265 	-0.00248823 	1.14401e-25
0.0513744 	0.0093985 	-0.00248349 	1.33735e-25
0.0518211 	0.00922757 	-0.0024728 	1.69045e-25
0.0522678 	0.0090554 	-0.00246092 	1.94187e-25
0.0527146 	0.00887025 	-0.00243649 	1.13276e-25
0.0531613 	0.00868511 	-0.00241206 	3.23645e-26
0.053608 	0.00849302 	-0.00237993 	0
0.0540548 	0.0082963 	-0.00234267 	0
0.0545015 	0.00809866 	-0.00230413 	0
0.0549482 	0.00789379 	-0.00225556 	0
0.055395 	0.00768892 	-0.00220698 	0
0.0558417 	0.00748143 	-0.0021526 	3.8229e-26
0.0562884 	0.00727236 	-0.00209473 	9.93954e-26
0.0567352 	0.00706329 	-0.00203589 	1.60247e-25
0.0571819 	0.0068542 	-0.00197102 	2.19124e-25
0.0576286 	0.00664511 	-0.00190614 	2.78e-25
0.0580754 	0.0064386 	-0.00183824 	2.7714e-25
0.0585221 	0.00623349 	-0.0017687 	2.44113e-25
0.0589688 	0.0060296 	-0.00169877 	1.98066e-25
0.0594156 	0.00583201 	-0.00162678 	8.49147e-26
0.0598623 	0.00563442 	-0.00155479 	-2.82364e-26
0.060309 	0.00544383 	-0.00148246 	-1.01335e-25
0.0607558 	0.0052566 	-0.00140996 	-1.5515e-25
0.0612025 	0.00507169 	-0.00133766 	-1.79288e-25
0.0616492 	0.00489685 	-0.00126626 	-7.4828e-26
0.062096 	0.004722 	-0.00119486 	2.96318e-26
0.0625427 	0.00455665 	-0.00112513 	1.1351e-25
0.0629894 	0.00439537 	-0.00105613 	1.88569e-25
0.0634362 	0.00423707 	-0.000987866 	2.47108e-25
0.0638829 	0.00408977 	-0.000922323 	2.44429e-25
0.0643296 	0.00394248 	-0.000856781 	2.4175e-25
0.0647764 	0.00380517 	-0.000794395 	2.69557e-25
0.0652231 	0.00367165 	-0.000733206 	3.08928e-25
0.0656698 	0.00354123 	-0.000673244 	3.42882e-25
0.0661166 	0.00342076 	-0.000617216 	3.59447e-25
0.0665633 	0.00330029 	-0.000561189 	3.76011e-25
0.0670101 	0.00318879 	-0.000509614 	2.8269e-25
0.0674568 	0.00308029 	-0.000459524 	1.52741e-25
0.0679035 	0.00297457 	-0.000411196 	2.96871e-26
0.0683503 	0.00287668 	-0.00036782 	-7.39936e-26
0.068797 	0.00277878 	-0.000324443 	-1.77674e-25
0.0692437 	0.00268794 	-0.000286893 	-1.96723e-25
0.0696905 	0.00259914 	-0.000251033 	-1.912e-25
0.0701372 	0.00251248 	-0.000217582 	-1.94862e-25
0.0705839 	0.00243112 	-0.000190099 	-2.21287e-25
0.0710307 	0.00234977 	-0.000162615 	-2.47711e-25
0.0714774 	0.00227298 	-0.000142593 	-2.24326e-25
0.0719241 	0.00219735 	-0.000124435 	-1.88489e-25
0.0723709 	0.00212294 	-0.000109535 	-1.30053e-25
0.0728176 	0.00205124 	-0.000101804 	-2.19009e-26
0.0732643 	0.00197954 	-9.4072e-05 	8.62514e-26
0.0737111 	0.00190959 	-9.60523e-05 	1.47181e-25
0.0741578 	0.00184 	-0.000100093 	1.98095e-25
0.0746045 	0.00177049 	-0.000108695 	2.40782e-25
0.0750513 	0.00170114 	-0.000126253 	2.67322e-25
0.075498 	0.00163179 	-0.00014381 	2.93863e-25
0.0759447 	0.001561 	-0.000174861 	2.71429e-25
0.0763915 	0.00148995 	-0.000208293 	2.40354e-25
0.0768382 	0.00141756 	-0.000248625 	1.85333e-25
0.0772849 	0.00134281 	-0.000301092 	8.82007e-26
0.0777317 	0.00126806 	-0.000353559 	-8.93139e-27
0.0781784 	0.00118816 	-0.000425749 	-6.83755e-26
0.0786251 	0.00110751 	-0.000500756 	-1.22436e-25
0.0790719 	0.00102362 	-0.000584599 	-1.56839e-25
0.0795186 	0.000934594 	-0.000682408 	-1.60172e-25
0.0799653 	0.00084557 	-0.000780217 	-1.63505e-25
0.0804121 	0.000746897 	-0.000884486 	-1.48309e-25
0.0808588 	0.000647153 	-0.000989473 	-1.31054e-25
0.0813055 	0.000543752 	-0.00107278 	-1.01479e-25
0.0817523 	0.000435143 	-0.00112521 	-5.43579e-26
0.082199 	0.000326534 	-0.00117763 	-7.23644e-27
0.0826457 	0.000233058 	-0.00105656 	3.11156e-26
0.0830925 	0.000140809 	-0.000921418 	6.87567e-26
0.0835392 	7.31297e-05 	-0.000741142 	8.32375e-26
0.0839859 	3.70394e-05 	-0.000502835 	6.79408e-26
0.0844327 	9.49104e-07 	-0.000264528 	5.26441e-26
0.0848794 	-5.14514e-07 	-0.000156222 	3.20602e-26
0.0853261 	-1.55675e-07 	-5.47575e-05 	1.11979e-26
0.0857729 	3.79985e-08 	-2.40345e-07 	-1.53434e-29
0.0862196 	3.97226e-08 	-2.83331e-07 	-1.49966e-29
0.0866663 	4.14467e-08 	-3.26316e-07 	-1.46498e-29
0.0871131 	3.40228e-08 	-3.78001e-07 	1.99467e-29
0.0875598 	2.63643e-08 	-4.29908e-07 	5.54215e-29
0.0880065 	1.80416e-08 	-3.67044e-07 	5.91777e-29
0.0884533 	9.02082e-09 	-1.83522e-07 	2.95889e-29
0.0889 	2.52573e-22 	-1.33596e-20 	3.64955e-42
