# f_l  POINT_DATA 1122
#  x  y  z  f_l
0.0738808 0.00222 0.0025 0.5
0.0738808 0.00222 -0.0025 0.5
0.0739208 0.00111 0.0025 0.5
0.0739208 0.00111 -0.0025 0.5
0.0739736 0.00166351 1.50226e-19 0.5
0.0738949 0.00333 0.0025 0.5
0.0738949 0.00333 -0.0025 0.5
0.0739723 0.00173913 0.0025 0.5
0.0739723 0.00173913 -0.0025 0.5
0.0739768 0.00158638 0.0025 0.5
0.0739768 0.00158638 -0.0025 0.5
0.0739925 0.00277552 2.77231e-19 0.5
0.073906 0.00444 0.0025 0.5
0.073906 0.00444 -0.0025 0.5
0.0739917 0.00268157 0.0025 0.5
0.0739917 0.00268157 -0.0025 0.5
0.0740866 0.000678083 1.16235e-19 0.5
0.0739932 0.00287001 0.0025 0.5
0.0739932 0.00287001 -0.0025 0.5
0.0740059 0.00388547 1.91092e-19 0.5
0.074083 0.000739625 0.0025 0.5
0.074083 0.000739625 -0.0025 0.5
0.0740052 0.00377808 -0.0025 0.5
0.0740052 0.00377808 0.0025 0.5
0.0740066 0.00399334 -0.0025 0.5
0.0740066 0.00399334 0.0025 0.5
0.0739181 0.00555 0.0025 0.5
0.0739181 0.00555 -0.0025 0.5
0.0740192 0.00499558 -1.39561e-19 0.5
0.0740184 0.00487491 -0.0025 0.5
0.0740184 0.00487491 0.0025 0.5
0.0740201 0.00511683 -0.0025 0.5
0.0740201 0.00511683 0.0025 0.5
0.0739323 0.00666 0.0025 0.5
0.0739323 0.00666 -0.0025 0.5
0.0740343 0.00610575 1.25839e-21 0.5
0.0740332 0.0059701 0.0025 0.5
0.0740332 0.0059701 -0.0025 0.5
0.0740354 0.00624216 0.0025 0.5
0.0740354 0.00624216 -0.0025 0.5
0.0739488 0.00777 0.0025 0.5
0.0739488 0.00777 -0.0025 0.5
0.0740516 0.00721599 -1.91886e-21 0.5
0.0740501 0.00706317 0.0025 0.5
0.0740501 0.00706317 -0.0025 0.5
0.0740531 0.00736979 0.0025 0.5
0.0740531 0.00736979 -0.0025 0.5
0.0744538 0.000776842 -0.0025 0.5
0.0744538 0.000776842 0.0025 0.5
0.0740711 0.00832627 4.19823e-21 0.5
0.0739679 0.00888 0.0025 0.5
0.0739679 0.00888 -0.0025 0.5
0.0740693 0.00815404 -0.0025 0.5
0.0740693 0.00815404 0.0025 0.5
0.0740731 0.00849977 -0.0025 0.5
0.0740731 0.00849977 0.0025 0.5
0.0740928 0.00943661 1.6923e-19 0.5
0.0739896 0.00999 0.0025 0.5
0.0739896 0.00999 -0.0025 0.5
0.0740905 0.00924287 0.0025 0.5
0.0740905 0.00924287 -0.0025 0.5
0.0740953 0.00963195 -0.0025 0.5
0.0740953 0.00963195 0.0025 0.5
0.0747316 0.0002775 0.0025 0.5
0.0747316 0.0002775 -0.0025 0.5
0.0741164 0.010547 -3.83293e-20 0.5
0.0741135 0.0103298 0.0025 0.5
0.0741135 0.0103298 -0.0025 0.5
0.074014 0.0111 0.0025 0.5
0.074014 0.0111 -0.0025 0.5
0.0741195 0.0107662 -0.0025 0.5
0.0741195 0.0107662 0.0025 0.5
0.0750094 0.0002775 1.14375e-19 0.5
0.0741418 0.0116574 2.27612e-19 0.5
0.0741382 0.0114152 0.0025 0.5
0.0741382 0.0114152 -0.0025 0.5
0.0740409 0.01221 0.0025 0.5
0.0740409 0.01221 -0.0025 0.5
0.0741455 0.0119021 0.0025 0.5
0.0741455 0.0119021 -0.0025 0.5
0.0741642 0.0124993 0.0025 0.5
0.0741642 0.0124993 -0.0025 0.5
0.0741684 0.0127679 1.30657e-19 0.5
0.0740702 0.01332 0.0025 0.5
0.0740702 0.01332 -0.0025 0.5
0.0752872 0.0002775 0.0025 0.5
0.0752872 0.0002775 -0.0025 0.5
0.0741729 0.0130395 0.0025 0.5
0.0741729 0.0130395 -0.0025 0.5
0.074191 0.0135824 0.00131792 0.5
0.074191 0.0135824 -0.00131792 0.5
0.074191 0.0135824 0.0025 0.5
0.074191 0.0135824 -0.0025 0.5
0.0741958 0.013875 2.43805e-19 0.5
0.0741015 0.01443 0.0025 0.5
0.0741015 0.01443 -0.0025 0.5
0.0742012 0.0141778 0.00136377 0.5
0.0742012 0.0141778 -0.00136377 0.5
0.0742012 0.0141778 0.0025 0.5
0.0742012 0.0141778 -0.0025 0.5
0.075565 0.000555 -0.0025 0.5
0.075565 0.000555 0.0025 0.5
0.0742183 0.0146652 0.00144044 0.5
0.0742183 0.0146652 -0.00144044 0.5
0.0742183 0.0146652 0.0025 0.5
0.0742183 0.0146652 -0.0025 0.5
0.0742238 0.014985 1.52679e-19 0.5
0.0741341 0.01554 0.0025 0.5
0.0741341 0.01554 -0.0025 0.5
0.0742298 0.0153163 0.00149217 0.5
0.0742298 0.0153163 -0.00149217 0.5
0.0742298 0.0153163 0.0025 0.5
0.0742298 0.0153163 -0.0025 0.5
0.0758428 0.0002775 0.0025 0.5
0.0758428 0.0002775 -0.0025 0.5
0.0742451 0.0157484 -0.00156137 0.5
0.0742451 0.0157484 0.00156137 0.5
0.0742451 0.0157484 0.0025 0.5
0.0742451 0.0157484 -0.0025 0.5
0.0742512 0.016095 2.43398e-19 0.5
0.0741665 0.01665 0.0025 0.5
0.0741665 0.01665 -0.0025 0.5
0.0742575 0.0164539 -0.00161686 0.5
0.0742575 0.0164539 0.00161686 0.5
0.0742575 0.0164539 0.0025 0.5
0.0742575 0.0164539 -0.0025 0.5
0.0761206 0.0002775 1.14623e-19 0.5
0.0742705 0.0168331 0.00167544 0.5
0.0742705 0.0168331 -0.00167544 0.5
0.0742705 0.0168331 0.0025 0.5
0.0742705 0.0168331 -0.0025 0.5
0.0742768 0.017205 1.7888e-19 0.5
0.0742112 0.01776 0.0025 0.5
0.0742112 0.01776 -0.0025 0.5
0.0742916 0.0175981 0.00177057 0.5
0.0742916 0.0175981 -0.00177057 0.5
0.0742916 0.0175981 0.0025 0.5
0.0742916 0.0175981 -0.0025 0.5
0.0763984 0.0002775 0.0025 0.5
0.0763984 0.0002775 -0.0025 0.5
0.0743013 0.0179123 0.00181389 0.5
0.0743013 0.0179123 -0.00181389 0.5
0.0743013 0.0179123 0.0025 0.5
0.0743013 0.0179123 -0.0025 0.5
0.0743167 0.018315 2.12494e-19 0.5
0.0742735 0.01887 0.0025 0.5
0.0742735 0.01887 -0.0025 0.5
0.0743351 0.0187514 0.00196594 0.5
0.0743351 0.0187514 -0.00196594 0.5
0.0743351 0.0187514 0.0025 0.5
0.0743351 0.0187514 -0.0025 0.5
0.0766763 0.000555 -0.0025 0.5
0.0766763 0.000555 0.0025 0.5
0.0743417 0.0189819 0.00199583 0.5
0.0743417 0.0189819 -0.00199583 0.5
0.0743417 0.0189819 0.0025 0.5
0.0743417 0.0189819 -0.0025 0.5
0.0743608 0.019425 2.67621e-19 0.5
0.0769541 0.0002775 0.0025 0.5
0.0769541 0.0002775 -0.0025 0.5
0.0743419 0.01998 0.0025 0.5
0.0743419 0.01998 -0.0025 0.5
0.0743812 0.0199076 0.00217371 0.5
0.0743812 0.0199076 -0.00217371 0.5
0.0743812 0.0199076 0.0025 0.5
0.0743812 0.0199076 -0.0025 0.5
0.074385 0.0200487 -0.0021905 0.5
0.074385 0.0200487 0.0021905 0.5
0.074385 0.0200487 -0.0025 0.5
0.074385 0.0200487 0.0025 0.5
0.0744062 0.020535 8.20123e-19 0.5
0.0772319 0.0002775 1.08196e-19 0.5
0.0744149 0.02109 -0.0025 0.5
0.0744149 0.02109 0.0025 0.5
0.0744289 0.0210652 -0.00238837 0.5
0.0744289 0.0210652 0.00238837 0.5
0.0744289 0.0210652 -0.0025 0.5
0.0744289 0.0210652 0.0025 0.5
0.0744302 0.0211136 -0.00239384 0.5
0.0744302 0.0211136 0.00239384 0.5
0.0744302 0.0211136 -0.0025 0.5
0.0744302 0.0211136 0.0025 0.5
0.0744538 0.021645 -1.04417e-18 0.5
0.0775097 0.0002775 0.0025 0.5
0.0775097 0.0002775 -0.0025 0.5
0.0744538 0.0216519 -0.0025 0.5
0.0744538 0.0216519 0.0025 0.5
0.0744768 0.022177 -0.00239632 0.5
0.0744768 0.022177 0.00239632 0.5
0.0744768 0.022177 0.0025 0.5
0.0744768 0.022177 -0.0025 0.5
0.0744798 0.0222261 -0.00238259 0.5
0.0744798 0.0222261 0.00238259 0.5
0.0744798 0.0222261 0.0025 0.5
0.0744798 0.0222261 -0.0025 0.5
0.0744922 0.0222 0.0025 0.5
0.0744922 0.0222 -0.0025 0.5
0.0777875 0.000555 -0.0025 0.5
0.0777875 0.000555 0.0025 0.5
0.0745036 0.022755 -3.00654e-19 0.5
0.0745253 0.0232385 -0.00217787 0.5
0.0745253 0.0232385 0.00217787 0.5
0.0745253 0.0232385 0.0025 0.5
0.0745253 0.0232385 -0.0025 0.5
0.0780653 0.0002775 0.0025 0.5
0.0780653 0.0002775 -0.0025 0.5
0.0745355 0.0233916 -0.00213223 0.5
0.0745355 0.0233916 0.00213223 0.5
0.0745355 0.0233916 0.0025 0.5
0.0745355 0.0233916 -0.0025 0.5
0.0745669 0.02331 0.0025 0.5
0.0745669 0.02331 -0.0025 0.5
0.0745577 0.023865 7.80887e-19 0.5
0.0783431 0.0002775 8.26565e-20 0.5
0.074578 0.0242959 -0.00194106 0.5
0.074578 0.0242959 0.00194106 0.5
0.074578 0.0242959 0.0025 0.5
0.074578 0.0242959 -0.0025 0.5
0.0745967 0.0245628 0.00185691 0.5
0.0745967 0.0245628 -0.00185691 0.5
0.0746392 0.02442 0.0025 0.5
0.0746392 0.02442 -0.0025 0.5
0.0745967 0.0245628 0.0025 0.5
0.0745967 0.0245628 -0.0025 0.5
0.0786209 0.0002775 0.0025 0.5
0.0786209 0.0002775 -0.0025 0.5
0.0746169 0.024975 2.11372e-19 0.5
0.0746351 0.0253489 0.0016841 0.5
0.0746351 0.0253489 -0.0016841 0.5
0.0746351 0.0253489 0.0025 0.5
0.0746351 0.0253489 -0.0025 0.5
0.0788988 0.000555 -0.0025 0.5
0.0788988 0.000555 0.0025 0.5
0.0747087 0.02553 0.0025 0.5
0.0747087 0.02553 -0.0025 0.5
0.074664 0.02574 -0.001554 0.5
0.074664 0.02574 0.001554 0.5
0.074664 0.02574 0.0025 0.5
0.074664 0.02574 -0.0025 0.5
0.0746816 0.026085 2.36262e-19 0.5
0.0791766 0.0002775 0.0025 0.5
0.0791766 0.0002775 -0.0025 0.5
0.0746972 0.0263968 -0.00140443 0.5
0.0746972 0.0263968 0.00140443 0.5
0.0746972 0.0263968 0.0025 0.5
0.0746972 0.0263968 -0.0025 0.5
0.0747752 0.02664 0.0025 0.5
0.0747752 0.02664 -0.0025 0.5
0.0794544 0.0002775 9.54222e-20 0.5
0.0747384 0.0269243 0.0025 0.5
0.0747384 0.0269243 -0.0025 0.5
0.0747521 0.027186 1.01363e-18 0.5
0.0747653 0.0274388 0.0025 0.5
0.0747653 0.0274388 -0.0025 0.5
0.0797322 0.0002775 0.0025 0.5
0.0797322 0.0002775 -0.0025 0.5
0.0748388 0.02775 -0.0025 0.5
0.0748388 0.02775 0.0025 0.5
0.0748205 0.0281163 0.0025 0.5
0.0748205 0.0281163 -0.0025 0.5
0.0748304 0.0282986 -9.3095e-19 0.5
0.08001 0.000555 -0.0025 0.5
0.08001 0.000555 0.0025 0.5
0.0748398 0.0284744 0.0025 0.5
0.0748398 0.0284744 -0.0025 0.5
0.0748991 0.02886 0.0025 0.5
0.0748991 0.02886 -0.0025 0.5
0.0802878 0.0002775 0.0025 0.5
0.0802878 0.0002775 -0.0025 0.5
0.0749109 0.0293167 0.0025 0.5
0.0749109 0.0293167 -0.0025 0.5
0.0749162 0.0294116 1.76495e-19 0.5
0.0749213 0.029503 0.0025 0.5
0.0749213 0.029503 -0.0025 0.5
0.0805656 0.0002775 1.15842e-19 0.5
0.0749561 0.02997 0.0025 0.5
0.0749561 0.02997 -0.0025 0.5
0.0808434 0.0002775 0.0025 0.5
0.0808434 0.0002775 -0.0025 0.5
0.0750109 0.0305235 -2.92796e-20 0.5
0.075011 0.0305234 -0.0025 0.5
0.075011 0.0305234 0.0025 0.5
0.0750111 0.0305267 -0.0025 0.5
0.0750111 0.0305267 0.0025 0.5
0.0811213 0.000555 -0.0025 0.5
0.0811213 0.000555 0.0025 0.5
0.075009 0.03108 -0.0025 0.5
0.075009 0.03108 0.0025 0.5
0.0813991 0.0002775 0.0025 0.5
0.0813991 0.0002775 -0.0025 0.5
0.0750918 0.0316388 3.18775e-19 0.5
0.075087 0.0315574 -0.0025 0.5
0.075087 0.0315574 0.0025 0.5
0.0750986 0.0317241 -0.0025 0.5
0.0750986 0.0317241 0.0025 0.5
0.0816769 0.0002775 9.5745e-20 0.5
0.0750972 0.03219 0.0025 0.5
0.0750972 0.03219 -0.0025 0.5
0.0819547 0.0002775 0.0025 0.5
0.0819547 0.0002775 -0.0025 0.5
0.0752406 0.0325141 0.0025 0.5
0.0752406 0.0325141 -0.0025 0.5
0.0752559 0.032754 7.31071e-20 0.5
0.0752675 0.0330028 -0.0025 0.5
0.0752675 0.0330028 0.0025 0.5
0.0751834 0.0333 0.0025 0.5
0.0751834 0.0333 -0.0025 0.5
0.0822325 0.000555 -0.0025 0.5
0.0822325 0.000555 0.0025 0.5
0.0753009 0.0335639 0.00131148 0.5
0.0753009 0.0335639 -0.00131148 0.5
0.0753009 0.0335639 0.0025 0.5
0.0753009 0.0335639 -0.0025 0.5
0.0825103 0.0002775 0.0025 0.5
0.0825103 0.0002775 -0.0025 0.5
0.0753093 0.033855 1.97535e-19 0.5
0.075302 0.0341473 -0.00131658 0.5
0.075302 0.0341473 0.00131658 0.5
0.075302 0.0341473 0.0025 0.5
0.075302 0.0341473 -0.0025 0.5
0.0751878 0.03441 0.0025 0.5
0.0751878 0.03441 -0.0025 0.5
0.0827881 0.0002775 8.32524e-20 0.5
0.0752737 0.0347009 0.0025 0.5
0.0752737 0.0347009 -0.0025 0.5
0.0752715 0.034965 1.8921e-19 0.5
0.0830659 0.0002775 0.0025 0.5
0.0830659 0.0002775 -0.0025 0.5
0.0752738 0.0352292 0.0025 0.5
0.0752738 0.0352292 -0.0025 0.5
0.0751892 0.03552 0.0025 0.5
0.0751892 0.03552 -0.0025 0.5
0.0753025 0.0357822 0.00131881 0.5
0.0753025 0.0357822 -0.00131881 0.5
0.0833437 0.000555 -0.0025 0.5
0.0833437 0.000555 0.0025 0.5
0.0753025 0.0357822 0.0025 0.5
0.0753025 0.0357822 -0.0025 0.5
0.0753099 0.036075 8.44427e-20 0.5
0.075316 0.0363813 -0.00137976 0.5
0.075316 0.0363813 0.00137976 0.5
0.0836216 0.0002775 0.0025 0.5
0.0836216 0.0002775 -0.0025 0.5
0.075316 0.0363813 -0.0025 0.5
0.075316 0.0363813 0.0025 0.5
0.0752257 0.03663 0.0025 0.5
0.0752257 0.03663 -0.0025 0.5
0.0753349 0.0368599 -0.00146459 0.5
0.0753349 0.0368599 0.00146459 0.5
0.0838994 0.0002775 3.228e-22 0.5
0.0753349 0.0368599 0.0025 0.5
0.0753349 0.0368599 -0.0025 0.5
0.0753412 0.037185 1.31182e-19 0.5
0.0753466 0.0375219 -0.00151749 0.5
0.0753466 0.0375219 0.00151749 0.5
0.0753466 0.0375219 0.0025 0.5
0.0753466 0.0375219 -0.0025 0.5
0.0841772 0.0002775 0.0025 0.5
0.0841772 0.0002775 -0.0025 0.5
0.0752551 0.03774 0.0025 0.5
0.0752551 0.03774 -0.0025 0.5
0.0753602 0.0379446 0.00157831 0.5
0.0753602 0.0379446 -0.00157831 0.5
0.0753602 0.0379446 -0.0025 0.5
0.0753602 0.0379446 0.0025 0.5
0.084455 0.000555 -0.0025 0.5
0.084455 0.000555 0.0025 0.5
0.0753657 0.038295 1.65595e-19 0.5
0.0753703 0.0386555 -0.00162386 0.5
0.0753703 0.0386555 0.00162386 0.5
0.0753703 0.0386555 0.0025 0.5
0.0753703 0.0386555 -0.0025 0.5
0.0752792 0.03885 0.0025 0.5
0.0752792 0.03885 -0.0025 0.5
0.0847328 0.0002775 0.0025 0.5
0.0847328 0.0002775 -0.0025 0.5
0.0753799 0.0390349 0.00166696 0.5
0.0753799 0.0390349 -0.00166696 0.5
0.0753799 0.0390349 0.0025 0.5
0.0753799 0.0390349 -0.0025 0.5
0.0850106 0.0002775 0 0.5
0.0753845 0.039405 1.76018e-19 0.5
0.075388 0.0397832 -0.00170357 0.5
0.075388 0.0397832 0.00170357 0.5
0.075388 0.0397832 0.0025 0.5
0.075388 0.0397832 -0.0025 0.5
0.075298 0.03996 0.0025 0.5
0.075298 0.03996 -0.0025 0.5
0.0852884 0.0002775 0.0025 0.5
0.0852884 0.0002775 -0.0025 0.5
0.0753944 0.0401304 0.0017324 0.5
0.0753944 0.0401304 -0.0017324 0.5
0.0753944 0.0401304 0.0025 0.5
0.0753944 0.0401304 -0.0025 0.5
0.0753979 0.040515 3.01654e-19 0.5
0.0855663 0.000555 -0.0025 0.5
0.0855663 0.000555 0.0025 0.5
0.0754002 0.0409054 -0.00175854 0.5
0.0754002 0.0409054 0.00175854 0.5
0.0754002 0.0409054 0.0025 0.5
0.0754002 0.0409054 -0.0025 0.5
0.0753112 0.04107 0.0025 0.5
0.0753112 0.04107 -0.0025 0.5
0.0858441 0.0002775 0.0025 0.5
0.0858441 0.0002775 -0.0025 0.5
0.075404 0.0412308 0.00177562 0.5
0.075404 0.0412308 -0.00177562 0.5
0.075404 0.0412308 0.0025 0.5
0.075404 0.0412308 -0.0025 0.5
0.0861219 0.0002775 0 0.5
0.0754063 0.041625 -2.84105e-19 0.5
0.0754078 0.042023 -0.00179262 0.5
0.0754078 0.042023 0.00179262 0.5
0.0753197 0.04218 0.0025 0.5
0.0753197 0.04218 -0.0025 0.5
0.0754078 0.042023 0.0025 0.5
0.0754078 0.042023 -0.0025 0.5
0.0863997 0.0002775 0.0025 0.5
0.0863997 0.0002775 -0.0025 0.5
0.0754101 0.0423347 0.00180309 0.5
0.0754101 0.0423347 -0.00180309 0.5
0.0754101 0.0423347 0.0025 0.5
0.0754101 0.0423347 -0.0025 0.5
0.0754116 0.042735 5.98607e-19 0.5
0.0866775 0.000555 -0.0025 0.5
0.0866775 0.000555 0.0025 0.5
0.0754121 0.0431373 -0.00181206 0.5
0.0754121 0.0431373 0.00181206 0.5
0.0753241 0.04329 -0.0025 0.5
0.0753241 0.04329 0.0025 0.5
0.0754121 0.0431373 0.0025 0.5
0.0754121 0.0431373 -0.0025 0.5
0.0869553 0.0002775 0.0025 0.5
0.0869553 0.0002775 -0.0025 0.5
0.0754129 0.043442 0.00181549 0.5
0.0754129 0.043442 -0.00181549 0.5
0.0754129 0.043442 0.0025 0.5
0.0754129 0.043442 -0.0025 0.5
0.0754134 0.043845 1.39871e-19 0.5
0.0872331 0.0002775 0 0.5
0.0754124 0.0442476 -0.0018133 0.5
0.0754124 0.0442476 0.0018133 0.5
0.0754124 0.0442476 0.0025 0.5
0.0754124 0.0442476 -0.0025 0.5
0.075323 0.0444 -0.0025 0.5
0.075323 0.0444 0.0025 0.5
0.0875109 0.0002775 0.0025 0.5
0.0875109 0.0002775 -0.0025 0.5
0.0754109 0.044554 0.00180649 0.5
0.0754109 0.044554 -0.00180649 0.5
0.0754109 0.044554 0.0025 0.5
0.0754109 0.044554 -0.0025 0.5
0.0754099 0.044955 1.13654e-18 0.5
0.0877888 0.000555 -0.0025 0.5
0.0877888 0.000555 0.0025 0.5
0.0754077 0.0453528 0.00179211 0.5
0.0754077 0.0453528 -0.00179211 0.5
0.0754077 0.0453528 0.0025 0.5
0.0754077 0.0453528 -0.0025 0.5
0.075316 0.04551 -0.0025 0.5
0.075316 0.04551 0.0025 0.5
0.0880666 0.0002775 -0.00125 0.5
0.0880666 0.0002775 0.00125 0.5
0.0880666 0.0002775 0.0025 0.5
0.0880666 0.0002775 -0.0025 0.5
0.0754041 0.0456707 0.00177618 0.5
0.0754041 0.0456707 -0.00177618 0.5
0.0754041 0.0456707 -0.0025 0.5
0.0754041 0.0456707 0.0025 0.5
0.0883444 0.0002775 0 0.5
0.0754019 0.046065 -9.02185e-19 0.5
0.0883444 0.00111 0.0025 0.5
0.0883444 0.00111 -0.0025 0.5
0.0883444 0.00222 0.0025 0.5
0.0883444 0.00222 -0.0025 0.5
0.0883444 0.00333 0.0025 0.5
0.0883444 0.00333 -0.0025 0.5
0.0883444 0.00444 0.0025 0.5
0.0883444 0.00444 -0.0025 0.5
0.0883444 0.00555 0.0025 0.5
0.0883444 0.00555 -0.0025 0.5
0.0753987 0.0464539 -0.00175167 0.5
0.0753987 0.0464539 0.00175167 0.5
0.0753987 0.0464539 0.0025 0.5
0.0753987 0.0464539 -0.0025 0.5
0.0753038 0.04662 0.0025 0.5
0.0753038 0.04662 -0.0025 0.5
0.0886222 0.000555 0 0.5
0.0883444 0.00666 0.0025 0.5
0.0883444 0.00666 -0.0025 0.5
0.0886222 0.0002775 -0.00125 0.5
0.0886222 0.0002775 0.00125 0.5
0.0886222 0.0008325 0.00125 0.5
0.0886222 0.0008325 -0.00125 0.5
0.0886222 0.001665 0 0.5
0.0886222 0.0002775 0.0025 0.5
0.0886222 0.0002775 -0.0025 0.5
0.0886222 0.0008325 0.0025 0.5
0.0886222 0.0008325 -0.0025 0.5
0.0886222 0.002775 0 0.5
0.0886222 0.0013875 0.0025 0.5
0.0886222 0.0013875 -0.0025 0.5
0.0886222 0.0019425 0.0025 0.5
0.0886222 0.0019425 -0.0025 0.5
0.0886222 0.0024975 0.0025 0.5
0.0886222 0.0024975 -0.0025 0.5
0.0886222 0.003885 0 0.5
0.0886222 0.0030525 0.0025 0.5
0.0886222 0.0030525 -0.0025 0.5
0.0883444 0.00777 0.0025 0.5
0.0883444 0.00777 -0.0025 0.5
0.0886222 0.0036075 0.0025 0.5
0.0886222 0.0036075 -0.0025 0.5
0.075393 0.0467918 -0.00172611 0.5
0.075393 0.0467918 0.00172611 0.5
0.0886222 0.0041625 0.0025 0.5
0.0886222 0.0041625 -0.0025 0.5
0.0886222 0.004995 -1.81603e-19 0.5
0.075393 0.0467918 -0.0025 0.5
0.075393 0.0467918 0.0025 0.5
0.0886222 0.0047175 0.0025 0.5
0.0886222 0.0047175 -0.0025 0.5
0.0886222 0.0052725 0.0025 0.5
0.0886222 0.0052725 -0.0025 0.5
0.0883444 0.00888 0.0025 0.5
0.0883444 0.00888 -0.0025 0.5
0.0886222 0.006105 -4.31797e-21 0.5
0.0886222 0.0058275 0.0025 0.5
0.0886222 0.0058275 -0.0025 0.5
0.0886222 0.0063825 0.0025 0.5
0.0886222 0.0063825 -0.0025 0.5
0.0886222 0.007215 3.76366e-21 0.5
0.0886222 0.0069375 -0.0025 0.5
0.0886222 0.0069375 0.0025 0.5
0.0753898 0.047175 -4.64614e-20 0.5
0.0883444 0.00999 0.0025 0.5
0.0883444 0.00999 -0.0025 0.5
0.0886222 0.0074925 -0.0025 0.5
0.0886222 0.0074925 0.0025 0.5
0.0886222 0.008325 1.10296e-21 0.5
0.0886222 0.0080475 -0.0025 0.5
0.0886222 0.0080475 0.0025 0.5
0.0886222 0.0086025 -0.0025 0.5
0.0886222 0.0086025 0.0025 0.5
0.0883444 0.0111 0.0025 0.5
0.0883444 0.0111 -0.0025 0.5
0.0886222 0.009435 1.92878e-21 0.5
0.0886222 0.0091575 0.0025 0.5
0.0886222 0.0091575 -0.0025 0.5
0.0753856 0.0475508 -0.00169287 0.5
0.0753856 0.0475508 0.00169287 0.5
0.0753856 0.0475508 0.0025 0.5
0.0753856 0.0475508 -0.0025 0.5
0.075287 0.04773 -0.0025 0.5
0.075287 0.04773 0.0025 0.5
0.0886222 0.0097125 0.0025 0.5
0.0886222 0.0097125 -0.0025 0.5
0.0883444 0.01221 0.0025 0.5
0.0883444 0.01221 -0.0025 0.5
0.0886222 0.010545 3.88923e-21 0.5
0.0886222 0.0102675 0.0025 0.5
0.0886222 0.0102675 -0.0025 0.5
0.0886222 0.0108225 0.0025 0.5
0.0886222 0.0108225 -0.0025 0.5
0.0753774 0.0479173 0.00165613 0.5
0.0753774 0.0479173 -0.00165613 0.5
0.0753774 0.0479173 0.0025 0.5
0.0753774 0.0479173 -0.0025 0.5
0.0883444 0.01332 0.0025 0.5
0.0883444 0.01332 -0.0025 0.5
0.0886222 0.0113775 0.0025 0.5
0.0886222 0.0113775 -0.0025 0.5
0.0886222 0.011655 2.78619e-21 0.5
0.0886222 0.0119325 0.0025 0.5
0.0886222 0.0119325 -0.0025 0.5
0.0753733 0.048285 2.67953e-19 0.5
0.0886222 0.0124875 -0.0025 0.5
0.0886222 0.0124875 0.0025 0.5
0.0886222 0.012765 1.81655e-19 0.5
0.0883444 0.01443 0.0025 0.5
0.0883444 0.01443 -0.0025 0.5
0.0886222 0.0130425 -0.0025 0.5
0.0886222 0.0130425 0.0025 0.5
0.0886222 0.0135975 0.0025 0.5
0.0886222 0.0135975 -0.0025 0.5
0.0886222 0.013875 0 0.5
0.0753685 0.0486437 -0.00161568 0.5
0.0753685 0.0486437 0.00161568 0.5
0.0883444 0.01554 0.0025 0.5
0.0883444 0.01554 -0.0025 0.5
0.0753685 0.0486437 -0.0025 0.5
0.0753685 0.0486437 0.0025 0.5
0.0752659 0.04884 0.0025 0.5
0.0752659 0.04884 -0.0025 0.5
0.0886222 0.0141525 0.0025 0.5
0.0886222 0.0141525 -0.0025 0.5
0.0886222 0.0147075 -0.0025 0.5
0.0886222 0.0147075 0.0025 0.5
0.0886222 0.014985 7.52748e-21 0.5
0.0753574 0.0490474 0.00156589 0.5
0.0753574 0.0490474 -0.00156589 0.5
0.0883444 0.01665 0.0025 0.5
0.0883444 0.01665 -0.0025 0.5
0.0753574 0.0490474 0.0025 0.5
0.0753574 0.0490474 -0.0025 0.5
0.0886222 0.0152625 -0.0025 0.5
0.0886222 0.0152625 0.0025 0.5
0.0886222 0.0158175 0.0025 0.5
0.0886222 0.0158175 -0.0025 0.5
0.0886222 0.016095 0 0.5
0.0753526 0.049395 2.60783e-19 0.5
0.0883444 0.01776 0.0025 0.5
0.0883444 0.01776 -0.0025 0.5
0.0886222 0.0163725 0.0025 0.5
0.0886222 0.0163725 -0.0025 0.5
0.0886222 0.0169275 0.0025 0.5
0.0886222 0.0169275 -0.0025 0.5
0.0886222 0.017205 0 0.5
0.0753472 0.0497325 -0.00152025 0.5
0.0753472 0.0497325 0.00152025 0.5
0.0753472 0.0497325 0.0025 0.5
0.0753472 0.0497325 -0.0025 0.5
0.0752413 0.04995 0.0025 0.5
0.0752413 0.04995 -0.0025 0.5
0.0886222 0.0174825 0.0025 0.5
0.0886222 0.0174825 -0.0025 0.5
0.0883444 0.01887 0.0025 0.5
0.0883444 0.01887 -0.0025 0.5
0.0886222 0.0180375 0.0025 0.5
0.0886222 0.0180375 -0.0025 0.5
0.0886222 0.018315 -4.24739e-19 0.5
0.0753329 0.0501819 0.00145557 0.5
0.0753329 0.0501819 -0.00145557 0.5
0.0753329 0.0501819 0.0025 0.5
0.0753329 0.0501819 -0.0025 0.5
0.0886222 0.0185925 0.0025 0.5
0.0886222 0.0185925 -0.0025 0.5
0.0883444 0.01998 0.0025 0.5
0.0883444 0.01998 -0.0025 0.5
0.0753276 0.050505 1.62845e-19 0.5
0.0886222 0.0191475 0.0025 0.5
0.0886222 0.0191475 -0.0025 0.5
0.0886222 0.019425 2.54579e-19 0.5
0.0886222 0.0197025 0.0025 0.5
0.0886222 0.0197025 -0.0025 0.5
0.0883444 0.02109 0.0025 0.5
0.0883444 0.02109 -0.0025 0.5
0.0753221 0.0508174 -0.00140721 0.5
0.0753221 0.0508174 0.00140721 0.5
0.0753221 0.0508174 0.0025 0.5
0.0753221 0.0508174 -0.0025 0.5
0.0752136 0.05106 0.0025 0.5
0.0752136 0.05106 -0.0025 0.5
0.0886222 0.0202575 0.0025 0.5
0.0886222 0.0202575 -0.0025 0.5
0.0886222 0.020535 -4.2863e-21 0.5
0.0886222 0.0208125 0.0025 0.5
0.0886222 0.0208125 -0.0025 0.5
0.0883444 0.0222 0.0025 0.5
0.0883444 0.0222 -0.0025 0.5
0.0753041 0.0513206 -0.00132616 0.5
0.0753041 0.0513206 0.00132616 0.5
0.0753041 0.0513206 -0.0025 0.5
0.0753041 0.0513206 0.0025 0.5
0.0886222 0.0213675 0.0025 0.5
0.0886222 0.0213675 -0.0025 0.5
0.0886222 0.021645 -2.44648e-21 0.5
0.0752987 0.051615 -7.45879e-19 0.5
0.0886222 0.0219225 0.0025 0.5
0.0886222 0.0219225 -0.0025 0.5
0.0883444 0.02331 0.0025 0.5
0.0883444 0.02331 -0.0025 0.5
0.0752934 0.0518987 0.00127781 0.5
0.0752934 0.0518987 -0.00127781 0.5
0.0886222 0.0224775 0.0025 0.5
0.0886222 0.0224775 -0.0025 0.5
0.0752934 0.0518987 0.0025 0.5
0.0752934 0.0518987 -0.0025 0.5
0.0886222 0.022755 -2.49561e-19 0.5
0.075184 0.05217 0.0025 0.5
0.075184 0.05217 -0.0025 0.5
0.0886222 0.0230325 0.0025 0.5
0.0886222 0.0230325 -0.0025 0.5
0.0883444 0.02442 0.0025 0.5
0.0883444 0.02442 -0.0025 0.5
0.0886222 0.0235875 0.0025 0.5
0.0886222 0.0235875 -0.0025 0.5
0.0886222 0.023865 4.33092e-19 0.5
0.0752715 0.0524631 -0.0025 0.5
0.0752715 0.0524631 0.0025 0.5
0.0886222 0.0241425 0.0025 0.5
0.0886222 0.0241425 -0.0025 0.5
0.0752664 0.0527216 1.01359e-18 0.5
0.0883444 0.02553 0.0025 0.5
0.0883444 0.02553 -0.0025 0.5
0.0886222 0.0246975 -0.0025 0.5
0.0886222 0.0246975 0.0025 0.5
0.0752614 0.0529767 0.0025 0.5
0.0752614 0.0529767 -0.0025 0.5
0.0886222 0.024975 1.19177e-21 0.5
0.075153 0.05328 -0.0025 0.5
0.075153 0.05328 0.0025 0.5
0.0886222 0.0252525 0.0025 0.5
0.0886222 0.0252525 -0.0025 0.5
0.0883444 0.02664 0.0025 0.5
0.0883444 0.02664 -0.0025 0.5
0.0886222 0.0258075 0.0025 0.5
0.0886222 0.0258075 -0.0025 0.5
0.0886222 0.026085 9.22105e-21 0.5
0.0752358 0.0536088 0.0025 0.5
0.0752358 0.0536088 -0.0025 0.5
0.0886222 0.0263625 0.0025 0.5
0.0886222 0.0263625 -0.0025 0.5
0.0752312 0.053832 -3.26053e-18 0.5
0.0883444 0.02775 0.0025 0.5
0.0883444 0.02775 -0.0025 0.5
0.0886222 0.0269175 0.0025 0.5
0.0886222 0.0269175 -0.0025 0.5
0.0752267 0.0540521 0.0025 0.5
0.0752267 0.0540521 -0.0025 0.5
0.0886222 0.027195 1.2044e-20 0.5
0.0751218 0.05439 0.0025 0.5
0.0751218 0.05439 -0.0025 0.5
0.0886222 0.0274725 0.0025 0.5
0.0886222 0.0274725 -0.0025 0.5
0.0883444 0.02886 0.0025 0.5
0.0883444 0.02886 -0.0025 0.5
0.0886222 0.0280275 0.0025 0.5
0.0886222 0.0280275 -0.0025 0.5
0.0886222 0.028305 -8.22717e-21 0.5
0.0751977 0.0547569 -0.0025 0.5
0.0751977 0.0547569 0.0025 0.5
0.0751939 0.0549425 5.83525e-18 0.5
0.0886222 0.0285825 0.0025 0.5
0.0886222 0.0285825 -0.0025 0.5
0.0751902 0.0551256 0.0025 0.5
0.0751902 0.0551256 -0.0025 0.5
0.0886222 0.0291375 0.0025 0.5
0.0886222 0.0291375 -0.0025 0.5
0.0883444 0.02997 0.0025 0.5
0.0883444 0.02997 -0.0025 0.5
0.0886222 0.029415 -6.85063e-19 0.5
0.0750912 0.0555 -0.0025 0.5
0.0750912 0.0555 0.0025 0.5
0.0886222 0.0296925 0.0025 0.5
0.0886222 0.0296925 -0.0025 0.5
0.0886222 0.0302475 0.0025 0.5
0.0886222 0.0302475 -0.0025 0.5
0.0883444 0.03108 0.0025 0.5
0.0883444 0.03108 -0.0025 0.5
0.0751586 0.0559059 -0.0025 0.5
0.0751586 0.0559059 0.0025 0.5
0.0886222 0.030525 6.22217e-19 0.5
0.0751557 0.0560531 -3.9921e-18 0.5
0.0886222 0.0308025 0.0025 0.5
0.0886222 0.0308025 -0.0025 0.5
0.0751529 0.0561983 -0.0025 0.5
0.0751529 0.0561983 0.0025 0.5
0.0886222 0.0313575 0.0025 0.5
0.0886222 0.0313575 -0.0025 0.5
0.0750623 0.05661 -0.0025 0.5
0.0750623 0.05661 0.0025 0.5
0.0883444 0.03219 0.0025 0.5
0.0883444 0.03219 -0.0025 0.5
0.0886222 0.031635 -3.88923e-21 0.5
0.0886222 0.0319125 0.0025 0.5
0.0886222 0.0319125 -0.0025 0.5
0.07512 0.0570545 0.0025 0.5
0.07512 0.0570545 -0.0025 0.5
0.0751179 0.0571637 2.41043e-18 0.5
0.0886222 0.0324675 0.0025 0.5
0.0886222 0.0324675 -0.0025 0.5
0.0883444 0.0333 0.0025 0.5
0.0883444 0.0333 -0.0025 0.5
0.0886222 0.032745 0 0.5
0.075116 0.0572715 0.0025 0.5
0.075116 0.0572715 -0.0025 0.5
0.0886222 0.0330225 0.0025 0.5
0.0886222 0.0330225 -0.0025 0.5
0.075036 0.05772 0.0025 0.5
0.075036 0.05772 -0.0025 0.5
0.0886222 0.0335775 0.0025 0.5
0.0886222 0.0335775 -0.0025 0.5
0.0883444 0.03441 0.0025 0.5
0.0883444 0.03441 -0.0025 0.5
0.0886222 0.033855 0 0.5
0.0886222 0.0341325 0.0025 0.5
0.0886222 0.0341325 -0.0025 0.5
0.0750834 0.0582011 0.0025 0.5
0.0750834 0.0582011 -0.0025 0.5
0.0750821 0.0582742 -2.16666e-18 0.5
0.075081 0.0583465 0.0025 0.5
0.075081 0.0583465 -0.0025 0.5
0.0886222 0.0346875 0.0025 0.5
0.0886222 0.0346875 -0.0025 0.5
0.0883444 0.03552 0.0025 0.5
0.0883444 0.03552 -0.0025 0.5
0.0886222 0.034965 -3.39789e-22 0.5
0.0750127 0.05883 -0.0025 0.5
0.0750127 0.05883 0.0025 0.5
0.0886222 0.0352425 0.0025 0.5
0.0886222 0.0352425 -0.0025 0.5
0.0886222 0.0357975 0.0025 0.5
0.0886222 0.0357975 -0.0025 0.5
0.0883444 0.03663 0.0025 0.5
0.0883444 0.03663 -0.0025 0.5
0.0886222 0.036075 1.76716e-21 0.5
0.0750497 0.0593846 2.8117e-18 0.5
0.0750503 0.0593442 -0.0025 0.5
0.0750503 0.0593442 0.0025 0.5
0.0750491 0.0594247 -0.0025 0.5
0.0750491 0.0594247 0.0025 0.5
0.0886222 0.0363525 0.0025 0.5
0.0886222 0.0363525 -0.0025 0.5
0.0886222 0.0369075 0.0025 0.5
0.0886222 0.0369075 -0.0025 0.5
0.0749931 0.05994 0.0025 0.5
0.0749931 0.05994 -0.0025 0.5
0.0883444 0.03774 0.0025 0.5
0.0883444 0.03774 -0.0025 0.5
0.0886222 0.037185 -6.78638e-19 0.5
0.0886222 0.0374625 0.0025 0.5
0.0886222 0.0374625 -0.0025 0.5
0.0750217 0.0604949 -2.29594e-18 0.5
0.0750218 0.0604826 0.0025 0.5
0.0750218 0.0604826 -0.0025 0.5
0.0750215 0.0605072 0.0025 0.5
0.0750215 0.0605072 -0.0025 0.5
0.0886222 0.0380175 -0.0025 0.5
0.0886222 0.0380175 0.0025 0.5
0.0883444 0.03885 0.0025 0.5
0.0883444 0.03885 -0.0025 0.5
0.0886222 0.038295 1.29532e-18 0.5
0.0886222 0.0385725 -0.0025 0.5
0.0886222 0.0385725 0.0025 0.5
0.0749774 0.06105 0.0025 0.5
0.0749774 0.06105 -0.0025 0.5
0.0886222 0.0391275 -0.0025 0.5
0.0886222 0.0391275 0.0025 0.5
0.0886222 0.039405 -6.22645e-19 0.5
0.0883444 0.03996 0.0025 0.5
0.0883444 0.03996 -0.0025 0.5
0.0749987 0.06157 2.70342e-18 0.5
0.074998 0.0615937 0.0025 0.5
0.074998 0.0615937 -0.0025 0.5
0.0749977 0.0616166 0.0025 0.5
0.0749977 0.0616166 -0.0025 0.5
0.0886222 0.0396825 -0.0025 0.5
0.0886222 0.0396825 0.0025 0.5
0.0886222 0.0402375 0.0025 0.5
0.0886222 0.0402375 -0.0025 0.5
0.0749653 0.06216 0.0025 0.5
0.0749653 0.06216 -0.0025 0.5
0.0886222 0.040515 -2.0701e-21 0.5
0.0883444 0.04107 0.0025 0.5
0.0883444 0.04107 -0.0025 0.5
0.0886222 0.0407925 0.0025 0.5
0.0886222 0.0407925 -0.0025 0.5
0.0749789 0.0627152 2.6627e-18 0.5
0.0749792 0.0626849 -0.0025 0.5
0.0749792 0.0626849 0.0025 0.5
0.0749786 0.0627457 -0.0025 0.5
0.0749786 0.0627457 0.0025 0.5
0.0886222 0.0413475 0.0025 0.5
0.0886222 0.0413475 -0.0025 0.5
0.0886222 0.041625 0 0.5
0.0883444 0.04218 0.0025 0.5
0.0883444 0.04218 -0.0025 0.5
0.0886222 0.0419025 0.0025 0.5
0.0886222 0.0419025 -0.0025 0.5
0.0749556 0.06327 0.0025 0.5
0.0749556 0.06327 -0.0025 0.5
0.0886222 0.0424575 0.0025 0.5
0.0886222 0.0424575 -0.0025 0.5
0.0886222 0.042735 0 0.5
0.0883444 0.04329 0.0025 0.5
0.0883444 0.04329 -0.0025 0.5
0.0749629 0.0638253 -2.237e-18 0.5
0.0749634 0.063779 0.0025 0.5
0.0749634 0.063779 -0.0025 0.5
0.0749623 0.063872 0.0025 0.5
0.0749623 0.063872 -0.0025 0.5
0.0886222 0.0430125 0.0025 0.5
0.0886222 0.0430125 -0.0025 0.5
0.0886222 0.0435675 0.0025 0.5
0.0886222 0.0435675 -0.0025 0.5
0.0749446 0.06438 0.0025 0.5
0.0749446 0.06438 -0.0025 0.5
0.0886222 0.043845 0 0.5
0.0883444 0.0444 0.0025 0.5
0.0883444 0.0444 -0.0025 0.5
0.0886222 0.0441225 0.0025 0.5
0.0886222 0.0441225 -0.0025 0.5
0.074941 0.0648667 -0.0025 0.5
0.074941 0.0648667 0.0025 0.5
0.0749475 0.0649673 2.5147e-19 0.5
0.0749464 0.0649979 -0.0025 0.5
0.0749464 0.0649979 0.0025 0.5
0.0886222 0.0446775 0.0025 0.5
0.0886222 0.0446775 -0.0025 0.5
0.0886222 0.044955 0 0.5
0.0883444 0.04551 0.0025 0.5
0.0883444 0.04551 -0.0025 0.5
0.0886222 0.0452325 0.0025 0.5
0.0886222 0.0452325 -0.0025 0.5
0.0749907 0.06549 0.0025 0.5
0.0749907 0.06549 -0.0025 0.5
0.0886222 0.0457875 0.0025 0.5
0.0886222 0.0457875 -0.0025 0.5
0.0886222 0.046065 -6.78387e-19 0.5
0.0883444 0.04662 0.0025 0.5
0.0883444 0.04662 -0.0025 0.5
0.0751158 0.0659759 2.87009e-19 0.5
0.0751131 0.0659413 -0.0025 0.5
0.0751131 0.0659413 0.0025 0.5
0.0886222 0.0463425 0.0025 0.5
0.0886222 0.0463425 -0.0025 0.5
0.075565 0.0658533 -0.0025 0.5
0.075565 0.0658533 0.0025 0.5
0.0886222 0.0468975 0.0025 0.5
0.0886222 0.0468975 -0.0025 0.5
0.0886222 0.047175 6.78675e-19 0.5
0.0883444 0.04773 0.0025 0.5
0.0883444 0.04773 -0.0025 0.5
0.0886222 0.0474525 0.0025 0.5
0.0886222 0.0474525 -0.0025 0.5
0.0758428 0.0663225 0.0025 0.5
0.0758428 0.0663225 -0.0025 0.5
0.0886222 0.0480075 0.0025 0.5
0.0886222 0.0480075 -0.0025 0.5
0.0886222 0.048285 0 0.5
0.0761206 0.0663225 1.0842e-19 0.5
0.0883444 0.04884 0.0025 0.5
0.0883444 0.04884 -0.0025 0.5
0.0886222 0.0485625 0.0025 0.5
0.0886222 0.0485625 -0.0025 0.5
0.0763984 0.0663225 0.0025 0.5
0.0763984 0.0663225 -0.0025 0.5
0.0766763 0.066045 -0.0025 0.5
0.0766763 0.066045 0.0025 0.5
0.0886222 0.0491175 0.0025 0.5
0.0886222 0.0491175 -0.0025 0.5
0.0886222 0.049395 0 0.5
0.0883444 0.04995 0.0025 0.5