/*--------------------------------*- C++ -*----------------------------------*\
  =========                 |
  \\      /  F ield         | OpenFOAM: The Open Source CFD Toolbox
   \\    /   O peration     | Website:  https://openfoam.org
    \\  /    A nd           | Version:  6
     \\/     M anipulation  |
\*---------------------------------------------------------------------------*/
FoamFile
{
    version     2.0;
    format      ascii;
    class       volScalarField;
    location    "200";
    object      epsilon;
}
// * * * * * * * * * * * * * * * * * * * * * * * * * * * * * * * * * * * * * //

dimensions      [0 2 -3 0 0 0 0];

internalField   nonuniform List<scalar> 
12225
(
285.522
270.706
257.916
243.811
232.461
223.086
216.81
212.699
212.743
213.955
217.245
220.893
228.126
232.76
241.35
246.527
255.014
262.997
52.4924
91.883
106.974
114.749
124.844
136.783
152.694
169.903
191.123
210.932
235.257
255.487
281.114
299.344
324.878
339.345
364.808
373.766
20.5285
34.8724
44.6758
50.4687
55.3968
59.6064
64.6664
69.6407
76.3227
83.1823
91.4465
99.3211
108.19
116.951
125.577
135.323
142.642
153.875
16.0023
19.4862
24.0818
27.5632
30.4973
32.8687
35.1565
37.2924
39.5045
41.917
44.3399
47.2025
49.6866
53.0435
55.4226
59.2487
61.4533
65.6769
15.0385
15.7123
17.3993
19.0782
20.6397
22.0256
23.2466
24.4307
25.4447
26.5946
27.5243
28.7586
29.6336
30.9873
31.8163
33.2697
34.0848
35.6564
14.7897
14.8256
15.2495
15.8675
16.5678
17.2869
17.9239
18.5841
19.1193
19.7341
20.1936
20.7993
21.209
21.8234
22.1994
22.8272
23.1819
23.8622
14.7658
14.6146
14.6409
14.7257
14.9352
15.2199
15.4916
15.8089
16.071
16.3827
16.6182
16.9204
17.1311
17.4274
17.6164
17.9129
18.0827
18.4079
14.7687
14.5866
14.466
14.3801
14.3677
14.3896
14.4394
14.5334
14.6185
14.7367
14.8309
14.9565
15.0478
15.1764
15.2613
15.3921
15.4704
15.6204
14.768
14.591
14.4349
14.2963
14.185
14.1044
14.0399
14.0066
13.9814
13.9785
13.9809
13.9917
14.0041
14.0296
14.0472
14.0796
14.1034
14.146
14.7666
14.594
14.432
14.282
14.143
14.0219
13.9115
13.8193
13.737
13.6698
13.6102
13.5633
13.5181
13.4872
13.4516
13.4342
13.4023
13.401
14.7659
14.5945
14.4322
14.2803
14.1361
14.0032
13.8782
13.7644
13.6582
13.5629
13.4735
13.3952
13.3198
13.2561
13.1915
13.1408
13.0838
13.0452
14.7657
14.5943
14.4321
14.2798
14.1353
13.9998
13.8715
13.7518
13.6385
13.5336
13.4341
13.343
13.2557
13.1771
13.1002
13.0328
12.9647
12.9074
14.7657
14.5941
14.432
14.2794
14.1349
13.9989
13.8699
13.7485
13.6331
13.5249
13.4219
13.3257
13.2338
13.1483
13.0663
12.9906
12.9172
12.8502
14.7657
14.5939
14.4318
14.279
14.1346
13.9983
13.8691
13.7472
13.6315
13.5223
13.4184
13.3203
13.227
13.1389
13.055
12.9759
12.9002
12.8291
14.7657
14.5938
14.4317
14.2787
14.1342
13.9977
13.8686
13.7464
13.6307
13.5211
13.4171
13.3185
13.2248
13.136
13.0516
12.9715
12.8952
12.8228
14.7657
14.5937
14.4316
14.2785
14.1339
13.9973
13.8681
13.7458
13.63
13.5202
13.4161
13.3174
13.2236
13.1346
13.05
12.9697
12.8932
12.8205
14.7657
14.5937
14.4315
14.2783
14.1337
13.997
13.8677
13.7453
13.6294
13.5195
13.4154
13.3165
13.2227
13.1336
13.0489
12.9684
12.8919
12.819
14.7657
14.5937
14.4314
14.2782
14.1335
13.9968
13.8674
13.745
13.629
13.5191
13.4148
13.3159
13.222
13.1329
13.0481
12.9676
12.8909
12.818
14.7657
14.5937
14.4314
14.2782
14.1335
13.9967
13.8673
13.7448
13.6288
13.5189
13.4146
13.3157
13.2217
13.1325
13.0477
12.9671
12.8904
12.8175
14.7657
14.5937
14.4314
14.2782
14.1336
13.9968
13.8674
13.745
13.629
13.5191
13.4148
13.3159
13.222
13.1327
13.048
12.9674
12.8907
12.8177
14.7657
14.5937
14.4315
14.2784
14.1338
13.997
13.8677
13.7453
13.6294
13.5196
13.4155
13.3166
13.2229
13.1339
13.0494
12.969
12.8927
12.82
14.7657
14.5937
14.4316
14.2785
14.1341
13.9974
13.8685
13.7464
13.6312
13.522
13.419
13.3214
13.2293
13.1418
13.0595
12.981
12.9074
12.8368
14.7659
14.5937
14.4318
14.2788
14.1353
14.0002
13.8742
13.756
13.6463
13.5435
13.4485
13.3592
13.277
13.1992
13.1282
13.0601
12.9988
12.9387
14.7661
14.5928
14.4329
14.2844
14.1515
14.0321
13.9289
13.8375
13.7593
13.6894
13.6307
13.5769
13.5328
13.4905
13.4574
13.423
13.3989
13.3693
14.7641
14.5936
14.461
14.3603
14.3029
14.2767
14.2796
14.294
14.3202
14.3529
14.3959
14.4345
14.4824
14.5217
14.572
14.6089
14.6616
14.6938
14.757
14.6921
14.7579
14.9172
15.1828
15.4611
15.7475
16.012
16.2723
16.5038
16.736
16.9386
17.1507
17.3309
17.5309
17.6936
17.8887
18.0359
14.9575
15.4344
16.5693
17.6884
18.7053
19.5677
20.3372
20.9968
21.6194
22.166
22.7188
23.2107
23.7398
24.2042
24.7326
25.1825
25.7248
26.1658
16.2579
20.9389
25.015
27.7587
29.7844
31.3585
32.7766
34.0583
35.3592
36.6161
37.9752
39.2969
40.7613
42.1454
43.7174
45.1733
46.8832
48.3579
29.9428
47.225
54.8704
58.6734
61.6137
64.4319
67.5793
70.9787
74.7376
78.7135
82.9847
87.3436
91.9043
96.4492
101.099
105.621
110.174
114.575
165.79
160.073
154.899
149.564
144.479
139.678
135.613
132.11
129.27
126.973
125.319
124.044
123.339
122.829
122.825
122.982
123.268
123.826
0.459633
0.487588
0.866723
1.22655
1.60839
2.01497
2.45001
2.9107
3.39043
3.87954
4.36971
4.8529
5.32364
5.77649
6.20758
6.61206
6.98549
7.32182
7.61486
7.85679
8.0402
8.15774
8.19917
8.17057
8.04786
7.9016
7.78112
8.02956
8.33835
8.59572
8.87155
9.02405
8.79465
9.19864
39.6747
39.8992
40.4054
44.7577
47.3123
51.0023
54.4264
58.2298
62.1086
66.201
70.4458
74.8766
79.4794
84.27
89.2418
94.4089
99.7648
105.324
111.079
117.046
123.216
129.604
136.201
143.023
150.058
157.323
164.805
172.519
180.451
188.618
197.003
205.621
214.453
223.516
232.788
242.286
251.984
261.899
272.005
282.316
292.803
303.481
314.319
325.328
336.479
347.779
359.196
370.737
382.367
394.088
405.862
417.688
429.524
441.36
453.156
464.892
476.53
488.043
499.418
510.685
521.939
532.996
543.912
554.639
565.17
575.477
585.537
595.329
604.827
614.011
622.857
631.343
639.447
647.145
654.42
661.246
667.609
673.485
678.864
683.722
688.056
691.843
695.085
697.764
699.882
701.42
702.389
702.768
702.51
701.6
700.282
698.539
696.133
693.187
689.735
685.774
681.347
676.456
671.147
665.428
659.342
652.908
646.151
639.11
631.832
624.368
616.766
609.071
601.315
593.535
585.759
578.027
570.361
562.801
555.366
548.095
541.008
534.142
527.508
521.139
515.042
509.245
503.748
498.573
493.719
489.197
484.996
481.134
477.584
474.339
471.411
469.178
470.041
471.618
473.488
475.695
478.197
480.948
483.899
486.943
489.949
492.48
494.692
495.881
494.627
471.959
1.95977
1.16392
1.16335
1.31524
1.546
1.83332
2.16764
2.53964
2.9395
3.35776
3.78647
4.21952
4.6526
5.08277
5.50803
5.92679
6.33756
6.73863
7.12786
7.50253
7.85918
8.20256
8.56214
8.96048
9.42521
10.0009
10.6907
11.4808
12.3605
13.4176
14.8019
16.6715
18.4148
21.6004
24.6686
25.6076
27.1186
28.8794
30.5206
32.3129
34.1298
36.0323
37.9909
40.0212
42.1182
44.2869
46.5271
48.8415
51.2307
53.6968
56.2403
58.8632
61.5656
64.3494
67.2145
70.1626
73.1932
76.3077
79.5054
82.7875
86.1527
89.6022
93.1341
96.7494
100.446
104.224
108.08
112.016
116.027
120.114
124.272
128.502
132.798
137.16
141.582
146.064
150.598
155.183
159.814
164.486
169.193
173.931
178.692
183.471
188.259
193.049
197.832
202.6
207.344
212.057
216.734
221.376
225.993
230.614
235.299
239.94
244.52
249.029
253.462
257.808
262.058
266.206
270.24
274.154
277.937
281.581
285.078
288.419
291.595
294.598
297.42
300.055
302.494
304.732
306.762
308.579
310.179
311.557
312.708
313.628
314.315
314.762
314.954
314.912
314.683
314.251
313.566
312.649
311.517
310.175
308.633
306.897
304.979
302.888
300.636
298.232
295.69
293.025
290.253
287.394
284.465
281.483
278.462
275.416
272.36
269.307
266.272
263.267
260.305
257.4
254.564
251.808
249.144
246.581
244.129
241.796
239.589
237.515
235.578
233.783
232.132
230.629
229.275
228.072
227.037
226.289
226.297
226.521
226.895
227.427
228.063
228.808
229.642
230.511
231.344
232.056
232.657
233.362
233.627
232.861
3.88607
1.9622
1.73946
1.78955
1.95102
2.18607
2.47795
2.81535
3.18821
3.58735
4.00509
4.43574
4.8756
5.32278
5.7768
6.23823
6.70844
7.18956
7.68465
8.19848
8.73897
9.31378
9.921
10.571
11.2788
12.0522
12.8896
13.7928
14.7737
15.8634
17.0862
18.4166
19.8176
21.3517
22.7492
23.9857
25.3232
26.7202
28.1468
29.6332
31.1705
32.7636
34.4102
36.1124
37.8705
39.6856
41.5585
43.4901
45.481
47.5323
49.6444
51.8181
54.0539
56.3524
58.714
61.1391
63.6279
66.1807
68.7974
71.4782
74.2227
77.031
79.9023
82.8365
85.8326
88.89
92.0077
95.1846
98.4195
101.711
105.057
108.457
111.908
115.407
118.954
122.544
126.176
129.846
133.552
137.289
141.054
144.843
148.652
152.476
156.311
160.153
163.996
167.836
171.67
175.495
179.31
183.115
186.913
190.708
194.497
198.248
201.954
205.607
209.202
212.73
216.185
219.56
222.848
226.042
229.135
232.12
234.989
237.735
240.353
242.834
245.173
247.363
249.398
251.273
252.982
254.521
255.886
257.073
258.077
258.896
259.528
259.971
260.196
260.251
260.15
259.864
259.389
258.73
257.897
256.896
255.732
254.412
252.943
251.334
249.594
247.731
245.755
243.68
241.516
239.278
236.978
234.63
232.246
229.836
227.412
224.987
222.569
220.171
217.803
215.475
213.195
210.975
208.822
206.744
204.749
202.843
201.033
199.323
197.717
196.22
194.835
193.563
192.407
191.369
190.457
189.72
189.29
189.017
188.878
188.832
188.816
188.884
189.023
189.169
189.239
189.242
189.233
189.443
189.729
190.581
5.9044
2.81497
2.36997
2.3369
2.45537
2.6615
2.93085
3.25032
3.61026
4.00258
4.42056
4.85908
5.31481
5.78611
6.27286
6.77615
7.29799
7.84112
8.40867
9.00406
9.63054
10.2905
10.985
11.7167
12.4884
13.301
14.1558
15.0559
16.0086
17.0226
18.1008
19.2376
20.4424
21.6632
22.8856
24.122
25.4175
26.7615
28.1445
29.5722
31.048
32.5739
34.1506
35.7791
37.4601
39.1947
40.9835
42.8275
44.7273
46.6837
48.6974
50.7688
52.8986
55.0873
57.3354
59.6432
62.0112
64.4396
66.9286
69.4783
72.0887
74.7598
77.4912
80.2828
83.1339
86.0441
89.0127
92.0387
95.1212
98.259
101.451
104.695
107.99
111.334
114.724
118.159
121.637
125.154
128.707
132.294
135.912
139.556
143.225
146.913
150.617
154.333
158.059
161.789
165.521
169.253
172.982
176.705
180.421
184.127
187.811
191.46
195.068
198.628
202.132
205.575
208.949
212.247
215.464
218.591
221.622
224.549
227.366
230.066
232.642
235.088
237.396
239.561
241.577
243.438
245.139
246.675
248.042
249.236
250.253
251.091
251.747
252.221
252.488
252.579
252.518
252.272
251.846
251.244
250.473
249.537
248.443
247.196
245.803
244.273
242.612
240.832
238.94
236.949
234.869
232.713
230.493
228.22
225.906
223.562
221.2
218.83
216.462
214.107
211.774
209.473
207.212
205.001
202.847
200.757
198.739
196.799
194.942
193.173
191.496
189.914
188.429
187.044
185.757
184.57
183.487
182.529
181.742
181.077
180.515
180.018
179.568
179.151
178.769
178.38
177.959
177.519
177.101
176.878
176.911
177.583
7.85316
3.66222
2.9978
2.88744
2.96484
3.14596
3.39748
3.70332
4.05331
4.4398
4.85669
5.29923
5.76415
6.24961
6.75506
7.28107
7.82905
8.40096
8.99898
9.62519
10.2813
10.9684
11.6869
12.4375
13.2208
14.0388
14.8935
15.7876
16.7243
17.7067
18.7349
19.8063
20.9305
22.098
23.3022
24.5478
25.8356
27.1665
28.5432
29.9681
31.4416
32.9648
34.5388
36.1646
37.8432
39.5756
41.3627
43.2056
45.1052
47.0627
49.0788
51.154
53.2889
55.4842
57.7407
60.059
62.4396
64.8832
67.39
69.9605
72.5948
75.2932
78.0557
80.8823
83.7726
86.7264
89.7432
92.8223
95.963
99.1643
102.425
105.744
109.119
112.549
116.032
119.566
123.149
126.777
130.448
134.16
137.908
141.69
145.503
149.342
153.204
157.086
160.982
164.891
168.806
172.726
176.644
180.558
184.46
188.344
192.203
196.027
199.81
203.544
207.223
210.84
214.387
217.857
221.243
224.536
227.731
230.82
233.794
236.647
239.372
241.961
244.409
246.707
248.85
250.832
252.647
254.29
255.756
257.041
258.142
259.054
259.778
260.311
260.634
260.76
260.725
260.495
260.079
259.479
258.701
257.75
256.631
255.35
253.915
252.333
250.613
248.764
246.796
244.719
242.546
240.288
237.956
235.564
233.122
230.642
228.136
225.614
223.087
220.566
218.06
215.578
213.13
210.725
208.369
206.07
203.836
201.672
199.583
197.574
195.649
193.81
192.06
190.398
188.826
187.342
185.948
184.653
183.473
182.391
181.392
180.453
179.565
178.706
177.871
177.04
176.202
175.372
174.592
173.999
173.657
173.878
9.67336
4.46972
3.5951
3.41031
3.44775
3.60459
3.83875
4.13078
4.46944
4.84704
5.25775
5.69709
6.16181
6.64982
7.16014
7.69272
8.24827
8.82803
9.43351
10.0663
10.7276
11.4188
12.1405
12.8938
13.6798
14.5003
15.3574
16.2536
17.1911
18.1718
19.1966
20.2663
21.382
22.5426
23.7474
24.9972
26.2929
27.6355
29.026
30.4658
31.9562
33.4981
35.0929
36.7418
38.446
40.2066
42.0248
43.9017
45.8384
47.8358
49.8951
52.0176
54.2045
56.4569
58.7757
61.162
63.6166
66.1404
68.7342
71.3986
74.1343
76.9416
79.8209
82.7724
85.7963
88.8923
92.0603
95.2997
98.6101
101.99
105.44
108.957
112.54
116.188
119.898
123.669
127.498
131.382
135.318
139.303
143.334
147.407
151.518
155.664
159.84
164.041
168.263
172.502
176.753
181.009
185.266
189.517
193.755
197.972
202.162
206.316
210.427
214.487
218.488
222.424
226.285
230.064
233.752
237.342
240.826
244.196
247.443
250.559
253.537
256.369
259.047
261.565
263.915
266.091
268.086
269.896
271.514
272.936
274.157
275.176
275.989
276.596
276.982
277.145
277.129
276.904
276.475
275.847
275.025
274.014
272.819
271.447
269.905
268.201
266.344
264.344
262.211
259.956
257.591
255.128
252.579
249.958
247.275
244.544
241.777
238.984
236.178
233.368
230.566
227.781
225.023
222.299
219.619
216.99
214.418
211.909
209.47
207.104
204.815
202.605
200.477
198.432
196.47
194.59
192.792
191.079
189.457
187.918
186.454
185.049
183.692
182.372
181.08
179.806
178.548
177.325
176.176
175.211
174.471
174.147
11.3194
5.21261
4.14133
3.88459
3.88291
4.0148
4.23064
4.50734
4.83233
5.19757
5.59733
6.02735
6.48448
6.9666
7.47249
8.00179
8.55482
9.13242
9.73577
10.3662
11.0252
11.7141
12.4343
13.187
13.9738
14.7964
15.6568
16.5569
17.4986
18.4833
19.5122
20.5862
21.706
22.872
24.085
25.3458
26.6553
28.0148
29.4253
30.8881
32.4045
33.9759
35.6037
37.2893
39.0343
40.84
42.7079
44.6396
46.6364
48.6999
50.8315
53.0329
55.3055
57.6509
60.0703
62.5653
65.1371
67.7869
70.5159
73.3252
76.2157
79.1882
82.2434
85.3817
88.6037
91.9093
95.2985
98.7712
102.327
105.965
109.684
113.483
117.36
121.314
125.343
129.443
133.614
137.85
142.15
146.51
150.925
155.392
159.906
164.463
169.057
173.683
178.337
183.011
187.701
192.399
197.099
201.792
206.471
211.129
215.756
220.345
224.886
229.372
233.795
238.144
242.412
246.59
250.668
254.638
258.49
262.216
265.808
269.255
272.55
275.684
278.649
281.437
284.041
286.453
288.666
290.674
292.472
294.054
295.415
296.553
297.464
298.148
298.593
298.79
298.783
298.547
298.087
297.406
296.51
295.405
294.096
292.59
290.894
289.017
286.968
284.757
282.397
279.897
277.271
274.531
271.691
268.763
265.761
262.697
259.584
256.436
253.263
250.078
246.89
243.712
240.551
237.419
234.321
231.268
228.265
225.319
222.436
219.62
216.876
214.206
211.613
209.098
206.662
204.305
202.026
199.827
197.708
195.668
193.7
191.796
189.947
188.145
186.384
184.661
182.978
181.354
179.826
178.482
177.336
176.47
12.7587
5.87287
4.62233
4.2936
4.25589
4.36251
4.55897
4.81887
5.12823
5.47855
5.86411
6.28083
6.72574
7.19684
7.69293
8.21357
8.7589
9.32961
9.92673
10.5516
11.2055
11.89
12.6066
13.3569
14.1426
14.9653
15.8268
16.7289
17.6732
18.6611
19.6939
20.7727
21.8985
23.0725
24.2956
25.5692
26.8947
28.2734
29.7068
31.1964
32.7437
34.3505
36.0185
37.7493
39.5447
41.4068
43.3371
45.3378
47.4107
49.5577
51.7808
54.082
56.4633
58.9266
61.4737
64.1067
66.8271
69.6367
72.5372
75.53
78.6165
81.7979
85.0751
88.4492
91.9206
95.4899
99.1572
102.922
106.785
110.745
114.8
118.95
123.193
127.527
131.95
136.459
141.05
145.721
150.467
155.285
160.17
165.117
170.121
175.175
180.276
185.415
190.586
195.783
200.998
206.222
211.449
216.67
221.874
227.054
232.199
237.301
242.35
247.337
252.252
257.084
261.825
266.464
270.991
275.396
279.67
283.803
287.784
291.604
295.254
298.725
302.008
305.094
307.975
310.642
313.09
315.31
317.296
319.043
320.547
321.802
322.806
323.558
324.049
324.269
324.253
323.985
323.468
322.707
321.708
320.475
319.015
317.335
315.444
313.349
311.061
308.591
305.951
303.153
300.21
297.135
293.942
290.646
287.26
283.798
280.274
276.701
273.092
269.459
265.814
262.168
258.531
254.913
251.323
247.769
244.258
240.798
237.393
234.051
230.775
227.57
224.437
221.38
218.399
215.496
212.672
209.926
207.26
204.673
202.163
199.725
197.355
195.048
192.802
190.615
188.495
186.46
184.541
182.809
181.254
179.896
13.9716
6.43827
5.02879
4.6327
4.56006
4.64139
4.8178
5.05993
5.35249
5.68648
6.05611
6.45744
6.88772
7.34513
7.82858
8.33761
8.87239
9.43357
10.0222
10.6394
11.2868
11.9652
12.6764
13.4221
14.2041
15.0242
15.8842
16.7856
17.7301
18.7194
19.7547
20.8377
21.9696
23.1519
24.3858
25.6726
27.0149
28.4144
29.8729
31.3922
32.9745
34.6216
36.3356
38.1188
39.9734
41.9016
43.9058
45.9883
48.1516
50.3982
52.7306
55.1513
57.6628
60.2676
62.968
65.7666
68.6657
71.6674
74.7738
77.987
81.3088
84.7407
88.2843
91.9406
95.7107
99.5951
103.594
107.708
111.937
116.279
120.734
125.3
129.976
134.759
139.646
144.635
149.721
154.9
160.169
165.521
170.953
176.456
182.027
187.657
193.34
199.067
204.832
210.626
216.439
222.263
228.089
233.905
239.702
245.47
251.197
256.874
262.488
268.031
273.49
278.854
284.113
289.255
294.269
299.145
303.871
308.437
312.832
317.046
321.068
324.888
328.498
331.888
335.049
337.972
340.651
343.076
345.243
347.144
348.774
350.13
351.209
352.007
352.518
352.737
352.686
352.356
351.751
350.876
349.737
348.34
346.69
344.797
342.668
340.313
337.742
334.967
332
328.855
325.545
322.084
318.488
314.77
310.946
307.03
303.037
298.982
294.877
290.737
286.574
282.398
278.222
274.056
269.908
265.789
261.705
257.665
253.676
249.742
245.871
242.066
238.331
234.67
231.085
227.579
224.153
220.809
217.549
214.375
211.287
208.285
205.366
202.531
199.78
197.114
194.544
192.085
189.764
187.638
185.674
183.864
14.949
6.90312
5.35784
4.90075
4.7948
4.85134
5.00757
5.2316
5.50693
5.82411
6.17723
6.56244
6.97718
7.41985
7.88954
8.38529
8.90759
9.45728
10.0354
10.6435
11.2832
11.9547
12.6599
13.4002
14.1776
14.9938
15.8505
16.7496
17.6928
18.6819
19.7186
20.8047
21.9419
23.132
24.3769
25.6784
27.0403
28.4632
29.9499
31.5031
33.1253
34.8191
36.587
38.4316
40.3556
42.362
44.4534
46.633
48.9038
51.2688
53.7312
56.2941
58.9605
61.7337
64.6166
67.6123
70.7237
73.9535
77.3045
80.7791
84.3796
88.108
91.9661
95.9554
100.077
104.332
108.721
113.243
117.899
122.688
127.608
132.658
137.835
143.136
148.559
154.099
159.753
165.514
171.378
177.339
183.39
189.523
195.732
202.009
208.344
214.729
221.154
227.61
234.085
240.57
247.052
253.521
259.965
266.371
272.728
279.023
285.244
291.379
297.415
303.34
309.143
314.81
320.329
325.688
330.876
335.881
340.691
345.295
349.683
353.845
357.769
361.447
364.87
368.028
370.913
373.518
375.836
377.86
379.586
381.009
382.126
382.934
383.427
383.607
383.482
383.05
382.316
381.285
379.964
378.358
376.476
374.326
371.915
369.256
366.357
363.232
359.893
356.355
352.633
348.74
344.692
340.505
336.195
331.777
327.266
322.679
318.028
313.33
308.596
303.839
299.071
294.304
289.546
284.808
280.098
275.425
270.797
266.219
261.699
257.243
252.854
248.539
244.302
240.145
236.073
232.088
228.196
224.4
220.702
217.107
213.616
210.232
206.958
203.799
200.765
197.872
195.141
192.615
190.248
188.019
15.6924
7.26707
5.61093
5.10057
4.96373
4.99663
5.13313
5.33926
5.59756
5.89812
6.23493
6.60414
7.00315
7.43089
7.88722
8.37135
8.88309
9.4229
9.99162
10.5903
11.22
11.8818
12.5777
13.3098
14.0798
14.8898
15.7416
16.6373
17.5789
18.5685
19.608
20.6998
21.8459
23.0486
24.3101
25.6318
27.0165
28.4669
29.9876
31.582
33.2531
35.004
36.8378
38.7576
40.7668
42.8687
45.0669
47.3651
49.7669
52.2762
54.8966
57.6321
60.4865
63.4635
66.5668
69.8002
73.1671
76.6709
80.3147
84.1017
88.0344
92.1152
96.3463
100.729
105.266
109.956
114.802
119.802
124.955
130.262
135.72
141.327
147.08
152.976
159.01
165.177
171.473
177.89
184.424
191.065
197.807
204.64
211.555
218.544
225.594
232.697
239.84
247.012
254.201
261.394
268.578
275.741
282.868
289.945
296.96
303.898
310.746
317.489
324.114
330.607
336.955
343.144
349.161
354.992
360.626
366.05
371.252
376.22
380.943
385.411
389.613
393.539
397.18
400.528
403.573
406.309
408.728
410.824
412.593
414.03
415.132
415.896
416.32
416.404
416.155
415.566
414.649
413.411
411.857
409.993
407.829
405.373
402.634
399.622
396.349
392.829
389.074
385.099
380.92
376.551
372.009
367.311
362.472
357.509
352.438
347.276
342.038
336.738
331.392
326.011
320.609
315.198
309.787
304.388
299.01
293.662
288.352
283.089
277.879
272.731
267.649
262.641
257.712
252.868
248.114
243.457
238.902
234.455
230.123
225.913
221.83
217.879
214.068
210.404
206.897
203.562
200.414
197.488
194.726
192.105
16.2137
7.53433
5.79281
5.23783
5.07326
5.08434
5.20208
5.39106
5.633
5.91754
6.23912
6.5949
6.98124
7.39645
7.83931
8.30877
8.80612
9.3322
9.88794
10.4745
11.0931
11.7457
12.4338
13.1592
13.9239
14.73
15.5796
16.475
17.4186
18.4127
19.46
20.5628
21.7239
22.946
24.2324
25.5851
27.0065
28.4986
30.0669
31.7168
33.4524
35.2782
37.1984
39.2163
41.3359
43.5612
45.8966
48.3464
50.9151
53.6073
56.4276
59.3804
62.4703
65.7018
69.0793
72.607
76.2891
80.1295
84.1318
88.2993
92.6351
97.1417
101.821
106.676
111.706
116.914
122.298
127.859
133.595
139.504
145.585
151.834
158.247
164.82
171.546
178.422
185.438
192.588
199.864
207.257
214.757
222.354
230.036
237.793
245.612
253.481
261.386
269.313
277.25
285.181
293.091
300.966
308.79
316.549
324.225
331.804
339.271
346.611
353.807
360.845
367.711
374.39
380.868
387.131
393.165
398.958
404.498
409.772
414.77
419.48
423.893
427.998
431.788
435.252
438.384
441.176
443.622
445.716
447.453
448.83
449.843
450.492
450.776
450.697
450.252
449.438
448.276
446.768
444.921
442.742
440.24
437.423
434.303
430.889
427.195
423.232
419.015
414.56
409.882
404.997
399.922
394.673
389.268
383.724
378.058
372.286
366.425
360.491
354.498
348.461
342.392
336.305
330.209
324.118
318.04
311.985
305.964
299.985
294.056
288.186
282.383
276.655
271.008
265.451
259.992
254.638
249.399
244.283
239.299
234.459
229.77
225.242
220.885
216.708
212.721
208.939
205.373
202.051
198.905
195.92
16.5347
7.71533
5.91135
5.32049
5.13152
5.12369
5.22374
5.39689
5.62522
5.89703
6.20558
6.54606
6.91651
7.31615
7.74446
8.20176
8.6881
9.2041
9.75071
10.3292
10.9409
11.5877
12.2715
12.9943
13.7584
14.566
15.4195
16.3217
17.2754
18.2835
19.3498
20.4761
21.6654
22.921
24.2455
25.6402
27.1118
28.666
30.308
32.0425
33.8744
35.8086
37.8511
40.006
42.2781
44.6725
47.1942
49.8487
52.6412
55.577
58.6616
61.9001
65.2978
68.8599
72.5912
76.4966
80.5805
84.8473
89.3007
93.9443
98.7809
103.813
109.043
114.472
120.1
125.929
131.956
138.182
144.603
151.217
158.02
165.008
172.176
179.517
187.024
194.691
202.507
210.465
218.553
226.761
235.077
243.49
251.985
260.551
269.171
277.832
286.519
295.216
303.907
312.576
321.206
329.781
338.283
346.695
355.001
363.183
371.225
379.11
386.822
394.345
401.663
408.761
415.624
422.237
428.588
434.662
440.449
445.936
451.111
455.965
460.489
464.672
468.507
471.986
475.102
477.849
480.22
482.21
483.818
485.038
485.869
486.311
486.364
486.039
485.306
484.194
482.71
480.86
478.652
476.091
473.188
469.952
466.394
462.525
458.358
453.906
449.184
444.206
438.99
433.551
427.908
422.076
416.073
409.918
403.627
397.219
390.71
384.116
377.453
370.735
363.977
357.192
350.391
343.586
336.788
330.008
323.257
316.543
309.878
303.269
296.728
290.263
283.884
277.6
271.422
265.359
259.425
253.629
247.986
242.508
237.209
232.099
227.193
222.501
218.035
213.808
209.828
206.117
202.603
199.283
16.6484
7.80973
5.97117
5.35528
5.14609
5.12314
5.21027
5.37077
5.58446
5.841
6.13485
6.46265
6.8221
7.21184
7.63132
8.08058
8.56006
9.07055
9.61313
10.1892
10.8003
11.4485
12.1361
12.8655
13.64
14.4615
15.3325
16.2564
17.2363
18.2752
19.3751
20.5393
21.7734
23.0822
24.4709
25.9445
27.5082
29.1678
30.929
32.7976
34.7795
36.881
39.1081
41.4666
43.9625
46.6021
49.3918
52.338
55.4467
58.724
62.1759
65.8082
69.6266
73.6366
77.8434
82.2519
86.8667
91.6917
96.7307
101.987
107.462
113.158
119.076
125.217
131.58
138.163
144.966
151.984
159.214
166.652
174.291
182.126
190.15
198.354
206.729
215.266
223.953
232.779
241.733
250.801
259.969
269.223
278.548
287.928
297.348
306.791
316.24
325.676
335.084
344.444
353.74
362.952
372.061
381.051
389.902
398.596
407.116
415.444
423.564
431.457
439.11
446.504
453.627
460.462
466.998
473.22
479.117
484.678
489.893
494.752
499.247
503.37
507.113
510.47
513.435
516.003
518.17
519.931
521.285
522.229
522.761
522.886
522.614
521.915
520.806
519.304
517.414
515.141
512.493
509.479
506.107
502.389
498.335
493.957
489.267
484.28
479.009
473.47
467.681
461.656
455.415
448.973
442.349
435.56
428.625
421.562
414.387
407.118
399.771
392.36
384.902
377.407
369.891
362.364
354.838
347.325
339.836
332.381
324.973
317.621
310.337
303.132
296.017
289.003
282.104
275.332
268.702
262.229
255.928
249.816
243.908
238.222
232.772
227.573
222.636
217.974
213.592
209.508
205.645
202.023
16.6172
7.8266
5.97951
5.35128
5.13009
5.09534
5.16805
5.31479
5.51711
5.76441
6.05044
6.37152
6.7255
7.11122
7.5283
7.97697
8.45802
8.97285
9.52244
10.1082
10.7322
11.3967
12.1043
12.8574
13.658
14.5085
15.4139
16.3786
17.4069
18.5034
19.6733
20.9212
22.2524
23.6727
25.1882
26.8054
28.5308
30.3711
32.3331
34.4237
36.6503
39.0201
41.5401
44.2176
47.0602
50.0758
53.2721
56.6569
60.2365
64.0172
68.005
72.2056
76.6247
81.2673
86.1381
91.2413
96.5806
102.159
107.978
114.04
120.346
126.895
133.687
140.719
147.989
155.494
163.229
171.188
179.366
187.756
196.348
205.136
214.108
223.254
232.563
242.022
251.62
261.341
271.172
281.097
291.102
301.169
311.283
321.426
331.579
341.726
351.848
361.925
371.94
381.873
391.705
401.418
410.991
420.406
429.643
438.685
447.513
456.11
464.458
472.541
480.343
487.848
495.041
501.909
508.439
514.618
520.436
525.884
530.951
535.629
539.913
543.795
547.269
550.332
552.979
555.205
557.009
558.387
559.343
559.868
559.965
559.659
558.906
557.729
556.14
554.147
551.756
548.972
545.805
542.262
538.353
534.09
529.483
524.544
519.285
513.72
507.863
501.732
495.34
488.705
481.845
474.775
467.514
460.08
452.491
444.765
436.919
428.971
420.937
412.833
404.673
396.471
388.241
379.995
371.745
363.503
355.281
347.092
338.947
330.859
322.839
314.901
307.059
299.325
291.715
284.244
276.93
269.792
262.846
256.113
249.613
243.365
237.388
231.699
226.31
221.232
216.469
212.038
207.85
203.959
16.5043
7.80739
5.95958
5.32084
5.08648
5.04105
5.10662
5.24799
5.44642
5.69167
5.97803
6.30203
6.66135
7.05513
7.48329
7.94626
8.44479
8.97962
9.55102
10.1626
10.8174
11.5188
12.2704
13.0759
13.9403
14.8676
15.8626
16.9307
18.0778
19.3101
20.6342
22.0567
23.5847
25.2256
26.9872
28.8778
30.9056
33.0791
35.4066
37.8966
40.5571
43.3957
46.4202
49.6401
53.0648
56.7036
60.5672
64.6651
69.0012
73.5801
78.406
83.4831
88.8151
94.4051
100.255
106.368
112.742
119.38
126.279
133.439
140.855
148.525
156.445
164.608
173.009
181.64
190.495
199.563
208.835
218.303
227.953
237.776
247.758
257.886
268.147
278.527
289.01
299.582
310.226
320.926
331.666
342.427
353.193
363.944
374.664
385.333
395.933
406.445
416.848
427.125
437.257
447.223
457.006
466.587
475.946
485.066
493.929
502.519
510.818
518.811
526.483
533.821
540.808
547.433
553.685
559.552
565.026
570.099
574.762
579.009
582.836
586.239
589.213
591.757
593.869
595.543
596.784
597.581
597.959
597.888
597.403
596.454
595.089
593.303
591.104
588.498
585.493
582.095
578.313
574.154
569.627
564.746
559.52
553.96
548.079
541.889
535.405
528.643
521.618
514.346
506.843
499.126
491.212
483.119
474.865
466.468
457.946
449.315
440.592
431.793
422.934
414.028
405.088
396.127
387.158
378.194
369.247
360.331
351.459
342.644
333.9
325.242
316.686
308.246
299.941
291.788
283.808
276.024
268.456
261.125
254.056
247.273
240.785
234.619
228.792
223.316
218.194
213.442
208.977
204.883
16.2395
7.73504
5.90298
5.26476
5.03169
4.98895
5.05945
5.20845
5.41706
5.67533
5.97742
6.31777
6.69661
7.11417
7.57122
8.06912
8.60983
9.19617
9.83118
10.5181
11.2612
12.0651
12.9353
13.8777
14.8987
16.0052
17.2041
18.5033
19.911
21.436
23.0876
24.8752
26.8089
28.8986
31.155
33.5884
36.2092
39.0278
42.0542
45.2979
48.768
52.473
56.4213
60.6215
65.0818
69.8102
74.8138
80.1042
85.6796
91.5392
97.6825
104.108
110.815
117.8
125.061
132.593
140.391
148.45
156.763
165.323
174.123
183.153
192.405
201.869
211.534
221.391
231.427
241.631
251.991
262.495
273.129
283.881
294.736
305.681
316.7
327.78
338.905
350.06
361.229
372.395
383.543
394.656
405.717
416.709
427.614
438.414
449.094
459.633
470.016
480.223
490.236
500.04
509.614
518.943
528.01
536.796
545.288
553.468
561.322
568.837
575.999
582.796
589.215
595.244
600.874
606.096
610.905
615.293
619.254
622.784
625.882
628.545
630.769
632.559
633.914
634.822
635.306
635.324
634.973
634.129
632.869
631.186
629.09
626.583
623.672
620.365
616.669
612.59
608.136
603.313
598.13
592.6
586.731
580.534
574.021
567.203
560.095
552.71
545.063
537.17
529.045
520.705
512.165
503.443
494.556
485.522
476.358
467.081
457.708
448.254
438.734
429.163
419.554
409.919
400.272
390.626
380.994
371.391
361.833
352.332
342.904
333.568
324.339
315.236
306.276
297.484
288.881
280.479
272.313
264.41
256.8
249.509
242.583
236.025
229.843
224.052
218.649
213.651
208.961
204.713
15.937
7.62049
5.82821
5.2114
4.99639
4.97208
5.06221
5.23025
5.4614
5.74726
6.08342
6.46831
6.9014
7.38376
7.91759
8.50605
9.15314
9.86383
10.6436
11.4986
12.4356
13.4626
14.5886
15.8229
17.1758
18.6581
20.2813
22.0576
23.9997
26.1205
28.4334
30.9513
33.6878
36.6558
39.8679
43.3359
47.0709
51.0831
55.3819
59.9747
64.8673
70.0649
75.5726
81.3931
87.5279
93.98
100.75
107.838
115.229
122.914
130.881
139.121
147.623
156.377
165.371
174.593
184.033
193.678
203.516
213.536
223.725
234.072
244.565
255.191
265.938
276.795
287.75
298.791
309.905
321.081
332.306
343.569
354.857
366.157
377.457
388.744
400.005
411.227
422.396
433.499
444.521
455.448
466.267
476.961
487.517
497.919
508.152
518.201
528.05
537.683
547.085
556.24
565.133
573.749
582.072
590.088
597.782
605.143
612.156
618.811
625.097
631.003
636.517
641.63
646.335
650.625
654.498
657.946
660.964
663.551
665.712
667.442
668.735
669.609