/*--------------------------------*- C++ -*----------------------------------*\
  =========                 |
  \\      /  F ield         | OpenFOAM: The Open Source CFD Toolbox
   \\    /   O peration     | Website:  https://openfoam.org
    \\  /    A nd           | Version:  6
     \\/     M anipulation  |
\*---------------------------------------------------------------------------*/
FoamFile
{
    version     2.0;
    format      ascii;
    class       volScalarField;
    location    "200";
    object      k;
}
// * * * * * * * * * * * * * * * * * * * * * * * * * * * * * * * * * * * * * //

dimensions      [0 2 -2 0 0 0 0];

internalField   nonuniform List<scalar> 
12225
(
0.362813
0.343993
0.327744
0.30982
0.295399
0.283484
0.27551
0.270285
0.27034
0.271884
0.276065
0.28069
0.28992
0.295646
0.306938
0.312617
0.325426
0.32729
0.440186
0.468698
0.461605
0.44837
0.450349
0.458314
0.47454
0.498558
0.524397
0.552147
0.580763
0.606213
0.633891
0.653944
0.679937
0.693124
0.718653
0.724775
0.390541
0.417873
0.420231
0.416826
0.411628
0.407804
0.408018
0.410037
0.414558
0.421402
0.430736
0.439725
0.451205
0.461179
0.472907
0.483607
0.493691
0.506127
0.377546
0.386982
0.391406
0.391341
0.390222
0.387896
0.385662
0.384081
0.382883
0.382898
0.383358
0.384384
0.386286
0.388471
0.39093
0.394271
0.396592
0.401053
0.374561
0.37609
0.378411
0.378665
0.378263
0.377205
0.375488
0.373738
0.37201
0.370455
0.369256
0.36811
0.367382
0.366808
0.366447
0.366347
0.366371
0.366729
0.373814
0.37271
0.372645
0.372383
0.37176
0.370817
0.369553
0.368083
0.366571
0.364976
0.363528
0.362063
0.360755
0.35953
0.358397
0.357429
0.356444
0.355792
0.373782
0.371742
0.370386
0.369287
0.368233
0.367114
0.365915
0.364587
0.363238
0.361808
0.360422
0.359023
0.357677
0.356382
0.35512
0.353966
0.352794
0.351805
0.37382
0.37156
0.369634
0.367977
0.3665
0.365107
0.363775
0.362429
0.361107
0.359766
0.35845
0.357143
0.355863
0.354622
0.3534
0.352249
0.351098
0.350052
0.373832
0.371553
0.369449
0.367525
0.365776
0.364153
0.362645
0.361199
0.359817
0.358473
0.357169
0.355902
0.354667
0.353474
0.352307
0.351195
0.350096
0.349072
0.373831
0.37156
0.369418
0.367405
0.365529
0.363772
0.362133
0.360585
0.359122
0.357728
0.356394
0.355117
0.353888
0.35271
0.351569
0.350481
0.349419
0.34842
0.373829
0.37156
0.369413
0.367378
0.365458
0.363645
0.361937
0.360324
0.358798
0.357353
0.355979
0.354672
0.353424
0.352235
0.351094
0.350008
0.348958
0.347968
0.373828
0.371558
0.369409
0.36737
0.365439
0.363609
0.361875
0.360233
0.358677
0.357201
0.3558
0.354468
0.3532
0.351994
0.350842
0.349747
0.348695
0.3477
0.373827
0.371556
0.369405
0.367365
0.36543
0.363593
0.361851
0.360197
0.358626
0.357134
0.355715
0.354367
0.353084
0.351864
0.3507
0.349594
0.348535
0.347531
0.373827
0.371555
0.369401
0.367359
0.365422
0.363583
0.361837
0.360178
0.3586
0.357101
0.355674
0.354317
0.353024
0.351794
0.350622
0.349506
0.34844
0.347427
0.373826
0.371553
0.369398
0.367355
0.365416
0.363575
0.361826
0.360164
0.358584
0.357081
0.355651
0.354289
0.352993
0.351758
0.35058
0.349459
0.348388
0.347369
0.373826
0.371552
0.369396
0.367351
0.36541
0.363567
0.361817
0.360153
0.358572
0.357067
0.355634
0.354271
0.352972
0.351734
0.350554
0.34943
0.348357
0.347334
0.373825
0.371551
0.369394
0.367348
0.365406
0.363562
0.36181
0.360145
0.358562
0.357055
0.355621
0.354256
0.352955
0.351716
0.350535
0.349408
0.348334
0.347309
0.373825
0.371551
0.369393
0.367346
0.365403
0.363558
0.361805
0.360139
0.358555
0.357047
0.355612
0.354246
0.352944
0.351703
0.350521
0.349393
0.348317
0.347291
0.373825
0.37155
0.369393
0.367346
0.365402
0.363557
0.361804
0.360137
0.358552
0.357044
0.355608
0.354241
0.352938
0.351697
0.350514
0.349385
0.348308
0.347281
0.373825
0.371551
0.369393
0.367347
0.365404
0.363559
0.361806
0.36014
0.358555
0.357047
0.355611
0.354244
0.352942
0.351701
0.350517
0.349389
0.348313
0.347285
0.373825
0.371551
0.369395
0.367349
0.365407
0.363563
0.361811
0.360146
0.358562
0.357055
0.355621
0.354256
0.352955
0.351716
0.350534
0.349408
0.348333
0.347308
0.373826
0.371552
0.369397
0.367352
0.365412
0.363571
0.361822
0.360161
0.358583
0.357083
0.355657
0.354299
0.353007
0.351775
0.350603
0.349484
0.348418
0.347399
0.373826
0.371554
0.369399
0.367359
0.365429
0.363603
0.361875
0.36024
0.358691
0.35722
0.355823
0.354494
0.353227
0.352019
0.350866
0.349763
0.348711
0.347701
0.373828
0.371551
0.369412
0.367417
0.365556
0.363819
0.362189
0.360651
0.359189
0.357794
0.356456
0.355172
0.353936
0.352746
0.351601
0.350496
0.349437
0.34841
0.373823
0.371554
0.369604
0.367893
0.366339
0.364892
0.363495
0.362122
0.360761
0.359414
0.358081
0.35677
0.355489
0.354238
0.353029
0.351856
0.350734
0.349646
0.373788
0.371991
0.371113
0.370266
0.36936
0.368311
0.367048
0.36563
0.364121
0.362575
0.36103
0.359522
0.358073
0.356682
0.355382
0.354142
0.35301
0.351924
0.374355
0.375572
0.377775
0.377858
0.377288
0.375886
0.373835
0.371641
0.369505
0.367482
0.365664
0.364084
0.36271
0.361535
0.360609
0.359818
0.359289
0.3588
0.379125
0.394296
0.398249
0.396573
0.392538
0.387603
0.383646
0.380448
0.378268
0.376852
0.376496
0.37674
0.377414
0.378689
0.38044
0.38242
0.384824
0.387135
0.408394
0.42754
0.422416
0.411055
0.402226
0.397923
0.398625
0.400962
0.406068
0.413052
0.420996
0.429824
0.438831
0.448185
0.457301
0.466544
0.475314
0.484172
0.36605
0.353416
0.341988
0.33021
0.318982
0.308381
0.299411
0.291671
0.285404
0.280333
0.276682
0.273866
0.272311
0.271173
0.27121
0.271471
0.272188
0.273388
0.00157203
0.00762755
0.013571
0.0191984
0.0251617
0.0315182
0.0383247
0.045547
0.0530724
0.0607538
0.0684449
0.0760189
0.0833703
0.0904116
0.097066
0.103265
0.108947
0.114061
0.118577
0.122499
0.125875
0.128483
0.130561
0.13351
0.136048
0.138765
0.141268
0.14583
0.147945
0.148527
0.147145
0.145127
0.140532
0.136557
0.12992
0.141972
0.146298
0.15521
0.16144
0.169572
0.177073
0.185168
0.193243
0.20158
0.210039
0.218685
0.227483
0.236453
0.245581
0.254879
0.264337
0.273966
0.283754
0.293714
0.303832
0.314121
0.324566
0.335178
0.345943
0.356872
0.367947
0.379179
0.39055
0.402072
0.413721
0.425511
0.437417
0.449451
0.461588
0.473839
0.486177
0.498612
0.511117
0.523701
0.536336
0.549028
0.561749
0.574506
0.587269
0.600043
0.612798
0.625535
0.638225
0.650867
0.663427
0.675902
0.688255
0.700478
0.712535
0.724407
0.736062
0.747478
0.758644
0.769588
0.7804
0.790956
0.801272
0.811321
0.821099
0.830584
0.839763
0.848619
0.857135
0.865297
0.873089
0.880496
0.887503
0.894094
0.900257
0.905977
0.911242
0.916038
0.920357
0.924185
0.927519
0.930344
0.932663
0.934463
0.935745
0.9365
0.936734
0.936437
0.935571
0.934081
0.932198
0.929967
0.927165
0.923817
0.920008
0.915725
0.910998
0.905835
0.900263
0.894296
0.887962
0.881277
0.874257
0.86695
0.859391
0.851619
0.843673
0.835589
0.827401
0.819139
0.810836
0.802519
0.794224
0.785977
0.777811
0.769753
0.761834
0.754076
0.746508
0.739151
0.732032
0.725167
0.718578
0.712277
0.706281
0.700591
0.695226
0.690189
0.685478
0.681101
0.67726
0.675923
0.676106
0.676186
0.676682
0.67755
0.678815
0.680308
0.681976
0.683829
0.685728
0.687533
0.688805
0.689253
0.687554
0.666697
0.00673855
0.0224238
0.0325422
0.0403757
0.0475056
0.0546377
0.0620388
0.0697651
0.0777568
0.0859036
0.0940858
0.102196
0.110145
0.117863
0.12529
0.132375
0.139078
0.145367
0.151234
0.1567
0.161837
0.166771
0.17176
0.177152
0.183188
0.190108
0.197559
0.204322
0.210122
0.215583
0.22117
0.228429
0.238769
0.247404
0.258262
0.272803
0.286552
0.299018
0.311235
0.324246
0.337574
0.351264
0.365261
0.379581
0.39421
0.409153
0.424406
0.439973
0.455854
0.472054
0.488571
0.505412
0.522576
0.540068
0.557886
0.576035
0.594513
0.613322
0.63246
0.651928
0.671722
0.691841
0.712281
0.73304
0.75411
0.775489
0.797166
0.819138
0.841393
0.863925
0.886721
0.909773
0.933067
0.956591
0.98033
1.00427
1.0284
1.05269
1.07713
1.10171
1.1264
1.15119
1.17604
1.20094
1.22585
1.25076
1.27564
1.30044
1.32513
1.34968
1.37404
1.39815
1.42194
1.44535
1.46827
1.49087
1.51316
1.5351
1.55667
1.57784
1.59857
1.61884
1.6386
1.65782
1.67647
1.69452
1.71192
1.72865
1.74467
1.75995
1.77446
1.78815
1.80101
1.81301
1.82411
1.83429
1.84353
1.85182
1.85912
1.86543
1.87073
1.87504
1.87831
1.88024
1.88117
1.8815
1.88084
1.87898
1.87613
1.8723
1.86753
1.86183
1.85524
1.84781
1.83957
1.83056
1.82085
1.81047
1.7995
1.788
1.77604
1.76369
1.75103
1.73811
1.72499
1.71175
1.69845
1.68515
1.67191
1.6588
1.64588
1.6332
1.62084
1.60882
1.59723
1.58608
1.57545
1.56536
1.55585
1.54694
1.53868
1.53106
1.52411
1.51782
1.51226
1.50774
1.50396
1.50093
1.49855
1.49675
1.49546
1.49444
1.49354
1.49264
1.49153
1.49002
1.48768
1.48454
1.47779
1.45392
0.0133886
0.0364351
0.049363
0.0591221
0.0678058
0.0761728
0.0845626
0.0931083
0.101825
0.110665
0.119555
0.128423
0.137208
0.145862
0.154351
0.162652
0.170757
0.178672
0.186428
0.194095
0.201788
0.209686
0.218013
0.22698
0.236699
0.247099
0.257834
0.26864
0.279499
0.29072
0.302768
0.315748
0.329759
0.344111
0.359317
0.375297
0.391436
0.407706
0.42421
0.441134
0.458458
0.47618
0.494288
0.512781
0.531658
0.550919
0.570565
0.590597
0.611016
0.631825
0.653025
0.674619
0.696607
0.718991
0.741772
0.76495
0.788524
0.812493
0.836855
0.861608
0.886748
0.912271
0.938172
0.964445
0.991083
1.01808
1.04542
1.0731
1.10111
1.12944
1.15806
1.18698
1.21617
1.24562
1.2753
1.30521
1.33533
1.36562
1.39607
1.42667
1.45737
1.48817
1.51902
1.54992
1.58081
1.61168
1.6425
1.67322
1.70382
1.73426
1.76449
1.79449
1.82422
1.85365
1.88275
1.9115
1.93988
1.96783
1.99533
2.02232
2.04878
2.07465
2.09989
2.12446
2.14832
2.17142
2.19372
2.21518
2.23574
2.25538
2.27403
2.29168
2.30827
2.32376
2.33813
2.35134
2.36337
2.37417
2.38373
2.39203
2.39906
2.4048
2.40925
2.41228
2.41386
2.4144
2.41379
2.41178
2.40849
2.40396
2.39822
2.39132
2.38328
2.37417
2.36402
2.3529
2.34088
2.328
2.31436
2.30004
2.28511
2.26966
2.25378
2.23755
2.22104
2.20435
2.18754
2.17071
2.15392
2.13726
2.12079
2.10461
2.08876
2.07333
2.05837
2.04395
2.03012
2.01692
2.00441
1.99261
1.98157
1.97129
1.9618
1.9531
1.9452
1.93815
1.93187
1.92638
1.92152
1.91723
1.91338
1.90979
1.90627
1.90267
1.89882
1.89458
1.88972
1.88442
1.87667
1.85851
0.020363
0.049244
0.0647942
0.076251
0.0861945
0.0955491
0.104741
0.113972
0.123317
0.132781
0.142333
0.151932
0.16154
0.171126
0.180677
0.190189
0.199675
0.209163
0.218706
0.228382
0.238298
0.248588
0.259389
0.270816
0.282918
0.295646
0.308872
0.322491
0.336505
0.351027
0.366196
0.382063
0.39864
0.415812
0.433557
0.451819
0.470485
0.489501
0.508869
0.528639
0.548828
0.569443
0.590485
0.611957
0.633862
0.656201
0.678978
0.702193
0.725851
0.749953
0.774502
0.799501
0.82495
0.850852
0.877207
0.904015
0.931276
0.958988
0.98715
1.01576
1.04481
1.0743
1.10422
1.13457
1.16534
1.19651
1.22809
1.26005
1.29239
1.32509
1.35813
1.39151
1.42521
1.4592
1.49346
1.52798
1.56274
1.5977
1.63285
1.66816
1.7036
1.73915
1.77477
1.81044
1.84611
1.88177
1.91737
1.95288
1.98827
2.0235
2.05853
2.09333
2.12786
2.16208
2.19595
2.22943
2.26248
2.29505
2.32709
2.35856
2.38941
2.41959
2.44905
2.47774
2.50561
2.53261
2.55869
2.5838
2.60788
2.63089
2.65278
2.67351
2.69302
2.71127
2.72823
2.74384
2.75809
2.77093
2.78233
2.79227
2.80073
2.8077
2.81317
2.81713
2.81938
2.82022
2.81975
2.81771
2.81419
2.80922
2.80284
2.79509
2.78602
2.77567
2.76412
2.75141
2.73762
2.72283
2.70712
2.69059
2.67331
2.6554
2.63693
2.61801
2.59873
2.57918
2.55945
2.53964
2.51983
2.50011
2.48057
2.46128
2.44233
2.4238
2.40575
2.38825
2.37137
2.35517
2.33968
2.32495
2.31102
2.2979
2.28561
2.27413
2.26348
2.25364
2.24457
2.23624
2.22855
2.2214
2.21465
2.20815
2.20175
2.19527
2.1886
2.18167
2.17441
2.16712
2.1584
2.14332
0.0270989
0.0609825
0.0789399
0.0919907
0.103111
0.113372
0.123288
0.133123
0.143008
0.153001
0.163111
0.173329
0.18364
0.194033
0.204508
0.215075
0.225755
0.236587
0.247622
0.258929
0.270592
0.282702
0.295348
0.308597
0.322478
0.336972
0.352035
0.367628
0.38374
0.400407
0.417672
0.435566
0.454082
0.473183
0.492834
0.513001
0.533639
0.554717
0.576227
0.598182
0.620594
0.643471
0.666818
0.690641
0.714943
0.739729
0.765003
0.790768
0.81703
0.843791
0.871055
0.898825
0.927104
0.955893
0.985194
1.01501
1.04534
1.07618
1.10753
1.13939
1.17175
1.20461
1.23797
1.27182
1.30614
1.34094
1.37619
1.41189
1.44803
1.48458
1.52154
1.55888
1.59658
1.63464
1.67301
1.71169
1.75064
1.78983
1.82925
1.86887
1.90864
1.94854
1.98854
2.02861
2.0687
2.10879
2.14883
2.18879
2.22862
2.2683
2.30778
2.34701
2.38596
2.42456
2.46279
2.50058
2.53789
2.57467
2.61087
2.64643
2.68131
2.71543
2.74876
2.78123
2.81279
2.84339
2.87295
2.90144
2.9288
2.95496
2.97987
3.00349
3.02576
3.04663
3.06605
3.08398
3.10038
3.1152
3.12843
3.14001
3.14994
3.1582
3.16478
3.16967
3.17274
3.17404
3.17387
3.17198
3.1684
3.16319
3.15638
3.148
3.13811
3.12677
3.11403
3.09997
3.08466
3.06818
3.05063
3.03209
3.01268
2.99249
2.97161
2.95017
2.92825
2.90596
2.8834
2.86068
2.83788
2.81511
2.79246
2.77001
2.74787
2.7261
2.7048
2.68403
2.66386
2.64436
2.62557
2.60753
2.5903
2.57387
2.55828
2.54352
2.52958
2.51644
2.50407
2.49242
2.48141
2.47094
2.46088
2.45113
2.44152
2.43195
2.42231
2.41262
2.40291
2.39356
2.3835
2.36934
0.0333919
0.0715108
0.0916279
0.10615
0.118372
0.129488
0.140082
0.150474
0.160843
0.171287
0.181858
0.192576
0.203451
0.214492
0.225709
0.237121
0.248756
0.260652
0.272856
0.285422
0.298415
0.311896
0.325924
0.340544
0.355779
0.371632
0.38809
0.405137
0.422764
0.440976
0.459784
0.479194
0.499199
0.519783
0.540928
0.562613
0.584817
0.607526
0.630732
0.654439
0.678651
0.703375
0.728617
0.754384
0.780681
0.807514
0.83489
0.862812
0.891288
0.920322
0.949919
0.980083
1.01082
1.04213
1.07401
1.10648
1.13953
1.17316
1.20736
1.24215
1.27751
1.31344
1.34994
1.387
1.4246
1.46275
1.50142
1.54062
1.58031
1.62049
1.66114
1.70223
1.74375
1.78568
1.82799
1.87065
1.91363
1.95691
2.00046
2.04424
2.08821
2.13235
2.17662
2.22098
2.26538
2.30979
2.35417
2.39847
2.44266
2.48668
2.53049
2.57403
2.61726
2.66013
2.70257
2.74455
2.786
2.82686
2.86709
2.90662
2.9454
2.98336
3.02045
3.0566
3.09175
3.12585
3.15882
3.19062
3.22118
3.25044
3.27834
3.30482
3.32982
3.35329
3.37519
3.39545
3.41403
3.43089
3.44598
3.45928
3.47076
3.4804
3.48818
3.4941
3.49809
3.50002
3.50029
3.49867
3.49518
3.48987
3.48276
3.4739
3.46333
3.45113
3.43734
3.42204
3.40532
3.38726
3.36796
3.3475
3.32601
3.30358
3.28032
3.25635
3.23178
3.20671
3.18125
3.15552
3.12962
3.10365
3.07771
3.05191
3.02633
3.00107
2.97621
2.95182
2.928
2.90479
2.88226
2.86046
2.83943
2.8192
2.79978
2.78119
2.76342
2.74644
2.73024
2.71477
2.69997
2.68575
2.67201
2.65867
2.64559
2.63271
2.61997
2.60742
2.59518
2.58363
2.57185
2.55736
0.039084
0.0807246
0.10272
0.118553
0.131776
0.143679
0.154904
0.165812
0.176619
0.187459
0.198413
0.209534
0.220854
0.232397
0.244188
0.256253
0.268622
0.281333
0.294425
0.307943
0.321935
0.336446
0.351516
0.367178
0.383452
0.400347
0.417863
0.435994
0.454735
0.474082
0.494036
0.514594
0.535753
0.557503
0.579835
0.602741
0.626211
0.650238
0.674818
0.699953
0.725647
0.751905
0.778734
0.806141
0.834134
0.86272
0.891906
0.921701
0.95211
0.983142
1.0148
1.0471
1.08003
1.11362
1.14785
1.18273
1.21827
1.25447
1.29133
1.32885
1.36702
1.40584
1.44531
1.48541
1.52615
1.56751
1.60948
1.65204
1.69519
1.73889
1.78314
1.8279
1.87317
1.9189
1.96508
2.01168
2.05865
2.10598
2.15362
2.20154
2.2497
2.29805
2.34657
2.3952
2.44389
2.49262
2.54132
2.58995
2.63846
2.68679
2.7349
2.78272
2.8302
2.87729
2.92391
2.97003
3.01557
3.06047
3.10468
3.14813
3.19076
3.2325
3.2733
3.31308
3.35178
3.38934
3.42569
3.46076
3.49449
3.52682
3.55768
3.58701
3.61474
3.64083
3.6652
3.68781
3.7086
3.72753
3.74455
3.75962
3.77271
3.7838
3.79285
3.79988
3.80484
3.80759
3.80838
3.80714
3.80385
3.79854
3.79124
3.78199
3.77085
3.75787
3.74311
3.72666
3.7086
3.689
3.66798
3.64564
3.62207
3.5974
3.57173
3.54519
3.51789
3.48995
3.46149
3.43261
3.40344
3.37409
3.34465
3.31524
3.28595
3.25689
3.22814
3.19978
3.17191
3.14459
3.11789
3.09187
3.06657
3.04203
3.01829
2.99537
2.97325
2.95195
2.93145
2.91171
2.89269
2.87435
2.8566
2.83938
2.8226
2.80623
2.79026
2.77476
2.75989
2.746
2.73225
2.71671
0.0440626
0.0885627
0.11214
0.129093
0.143186
0.155791
0.167588
0.178966
0.190169
0.201358
0.21264
0.224089
0.235759
0.24769
0.259917
0.272474
0.285393
0.298709
0.312458
0.326678
0.341404
0.356671
0.372509
0.388943
0.405991
0.423662
0.441961
0.460889
0.480444
0.500624
0.521427
0.542851
0.564893
0.587551
0.610822
0.634701
0.659187
0.684278
0.709975
0.736281
0.7632
0.79074
0.818908
0.847713
0.877164
0.907271
0.938042
0.969487
1.00162
1.03444
1.06796
1.10219
1.13715
1.17282
1.20923
1.24637
1.28426
1.32288
1.36226
1.40237
1.44324
1.48484
1.52718
1.57025
1.61404
1.65854
1.70374
1.74962
1.79617
1.84336
1.89118
1.93959
1.98858
2.03812
2.08817
2.13869
2.18966
2.24104
2.29279
2.34486
2.39721
2.4498
2.50257
2.55549
2.60849
2.66154
2.71456
2.76751
2.82034
2.87298
2.92537
2.97745
3.02916
3.08043
3.13121
3.18142
3.23101
3.2799
3.32804
3.37536
3.42178
3.46725
3.51169
3.55503
3.59721
3.63816
3.67781
3.71609
3.75293
3.78827
3.82203
3.85416
3.88458
3.91324
3.94007
3.965
3.988
4.00899
4.02793
4.04479
4.05951
4.07208
4.08246
4.09063
4.09659
4.10022
4.10163
4.10085
4.09784
4.09261
4.08519
4.07563
4.06397
4.05029
4.03463
4.01708
3.99772
3.97663
3.95393
3.9297
3.90407
3.87714
3.84904
3.81988
3.78979
3.75889
3.72731
3.69516
3.66257
3.62964
3.5965
3.56325
3.53
3.49685
3.46391
3.43126
3.39899
3.36719
3.33592
3.30527
3.27528
3.24602
3.21751
3.18981
3.16293
3.13687
3.11166
3.08727
3.06369
3.04091
3.01887
2.99754
2.97689
2.95689
2.93758
2.91907
2.9015
2.88518
2.8693
2.85235
0.0482583
0.0950104
0.119868
0.137742
0.152565
0.165771
0.178066
0.18986
0.201415
0.212911
0.224473
0.236193
0.248141
0.260369
0.272921
0.285838
0.299154
0.312903
0.327119
0.341833
0.357075
0.372874
0.389252
0.40623
0.423823
0.442042
0.460896
0.480387
0.500519
0.521293
0.542709
0.564768
0.58747
0.610818
0.634811
0.659451
0.684741
0.710684
0.737284
0.764548
0.792482
0.821097
0.850401
0.880406
0.911122
0.942562
0.974738
1.00766
1.04134
1.07579
1.11103
1.14706
1.18389
1.22153
1.25999
1.29928
1.3394
1.38036
1.42216
1.46481
1.5083
1.55262
1.59779
1.64377
1.69058
1.7382
1.78661
1.83579
1.88574
1.93642
1.98781
2.03988
2.09261
2.14596
2.19989
2.25437
2.30936
2.36481
2.42068
2.47692
2.53349
2.59032
2.64737
2.70458
2.76189
2.81925
2.87658
2.93384
2.99096
3.04787
3.10451
3.16081
3.21669
3.27209
3.32695
3.38119
3.43474
3.48753
3.5395
3.59058
3.64069
3.68976
3.73772
3.7845
3.83003
3.87424
3.91705
3.95841
3.99823
4.03645
4.073
4.1078
4.1408
4.17192
4.2011
4.22828
4.25339
4.27638
4.2972
4.31579
4.33212
4.34614
4.35783
4.36715
4.37411
4.37863
4.38072
4.38044
4.37776
4.37266
4.36518
4.35536
4.34325
4.32891
4.31241
4.29381
4.27321
4.25067
4.22632
4.20024
4.17256
4.14338
4.11283
4.08104
4.04812
4.01421
3.97943
3.94391
3.90777
3.87114
3.83413
3.79686
3.75944
3.72199
3.68461
3.64739
3.61044
3.57385
3.53771
3.5021
3.46708
3.43274
3.39913
3.36629
3.33429
3.30314
3.27289
3.24355
3.21514
3.18766
3.16112
3.13552
3.11084
3.08712
3.0644
3.04282
3.02251
3.00373
2.98566
2.96706
0.0516397
0.100098
0.12595
0.14455
0.159959
0.173657
0.186368
0.198516
0.210374
0.222132
0.23393
0.245871
0.258034
0.270483
0.28327
0.296438
0.310025
0.324064
0.338588
0.353624
0.369201
0.385342
0.402067
0.419395
0.43734
0.455915
0.475129
0.49499
0.515504
0.536676
0.55851
0.581011
0.604185
0.628035
0.652567
0.677787
0.703702
0.730319
0.757646
0.785694
0.814472
0.843993
0.874271
0.905318
0.937149
0.969778
1.00322
1.03749
1.0726
1.10857
1.14541
1.18313
1.22175
1.26127
1.30171
1.34308
1.38539
1.42863
1.47283
1.51797
1.56405
1.61108
1.65906
1.70796
1.75779
1.80853
1.86016
1.91267
1.96602
2.02021
2.0752
2.13096
2.18745
2.24463
2.30248
2.36093
2.41996
2.4795
2.5395
2.59992
2.6607
2.72177
2.78307
2.84455
2.90614
2.96777
3.02937
3.09087
3.15221
3.21332
3.27411
3.33451
3.39446
3.45387
3.51267
3.57079
3.62815
3.68468
3.74031
3.79496
3.84856
3.90104
3.95232
4.00232
4.05099
4.09824
4.14401
4.18822
4.2308
4.27168
4.3108
4.34808
4.38345
4.41685
4.4482
4.47745
4.50452
4.52936
4.55192
4.57213
4.58996
4.60536
4.61829
4.62873
4.63664
4.642
4.64479
4.64503
4.64272
4.63777
4.63025
4.62021
4.6077
4.59276
4.57547
4.55588
4.53409
4.51017
4.48422
4.45634
4.42665
4.39526
4.36229
4.32787
4.29212
4.25518
4.21718
4.17824
4.1385
4.09809
4.05712
4.01571
3.974
3.93209
3.8901
3.84814
3.80632
3.76473
3.72349
3.68268
3.64239
3.60272
3.56373
3.52551
3.48813
3.45164
3.41611
3.3816
3.34815
3.31581
3.28461
3.2546
3.22581
3.1983
3.17214
3.14746
3.1244
3.10316
3.08293
3.06274
0.0542114
0.103898
0.130482
0.149626
0.165481
0.179561
0.192601
0.205033
0.217136
0.229108
0.241094
0.253204
0.265527
0.27813
0.291071
0.304396
0.318147
0.332357
0.347057
0.362276
0.378038
0.394365
0.411278
0.428793
0.446927
0.465693
0.485105
0.505172
0.525905
0.547314
0.569406
0.592192
0.61568
0.63988
0.664801
0.690454
0.716851
0.744001
0.771917
0.800614
0.830107
0.860411
0.891543
0.923521
0.956362
0.990083
1.0247
1.06024
1.09671
1.13413
1.17251
1.21188
1.25225
1.29363
1.33603
1.37947
1.42395
1.46948
1.51607
1.56372
1.61243
1.66219
1.713
1.76486
1.81774
1.87164
1.92654
1.98241
2.03922
2.09695
2.15557
2.21504
2.27533
2.33637
2.39814
2.46058
2.52364
2.58726
2.65138
2.71595
2.78089
2.84614
2.91164
2.97731
3.04308
3.10887
3.17461
3.24023
3.30564
3.37078
3.43555
3.49987
3.56368
3.62688
3.6894
3.75116
3.81208
3.87209
3.9311
3.98905
4.04585
4.10143
4.15571
4.20863
4.26012
4.31009
4.35848
4.40522
4.45024
4.49347
4.53484
4.57429
4.61174
4.64712
4.68038
4.71143
4.74023
4.7667
4.79078
4.81243
4.83159
4.84822
4.86226
4.8737
4.88249
4.88862
4.89206
4.8928
4.89086
4.88608
4.87854
4.86831
4.85543
4.83995
4.82192
4.80142
4.77851
4.75327
4.72581
4.69621
4.66458
4.63105
4.59572
4.55874
4.52022
4.48029
4.4391
4.39677
4.35343
4.30923
4.26427
4.21871
4.17265
4.12623
4.07956
4.03277
3.98597
3.93927
3.8928
3.84666
3.80096
3.75581
3.7113
3.66754
3.62462
3.58264
3.54169
3.50187
3.46325
3.42593
3.38999
3.3555
3.32254
3.2912
3.26158
3.23382
3.20803
3.18437
3.16204
3.14036
0.0560138
0.106522
0.133599
0.153118
0.169288
0.183642
0.196921
0.209562
0.221847
0.233976
0.246096
0.258324
0.27075
0.283446
0.296473
0.309879
0.323704
0.337984
0.352751
0.368032
0.383853
0.400236
0.417201
0.434769
0.452958
0.471783
0.491261
0.511407
0.532232
0.553751
0.575979
0.59893
0.622617
0.647054
0.672255
0.698235
0.725012
0.752599
0.781014
0.810277
0.840406
0.871423
0.903349
0.936203
0.970009
1.00479
1.04056
1.07734
1.11516
1.15404
1.19398
1.23502
1.27717
1.32044
1.36484
1.4104
1.45712
1.505
1.55406
1.60429
1.6557
1.70827
1.762
1.81689
1.8729
1.93003
1.98826
2.04755
2.10788
2.1692
2.23149
2.2947
2.35879
2.4237
2.48938
2.55577
2.62282
2.69046
2.75862
2.82724
2.89624
2.96555
3.03509
3.10478
3.17455
3.24431
3.31397
3.38347
3.4527
3.52159
3.59005
3.65799
3.72533
3.79199
3.85788
3.92292
3.98702
4.05012
4.11211
4.17294
4.23253
4.29079
4.34765
4.40305
4.45691
4.50916
4.55973
4.60856
4.65558
4.70073
4.74394
4.78513
4.82426
4.86125
4.89603
4.92854
4.95872
4.98651
5.01183
5.03465
5.0549
5.07254
5.08751
5.09979
5.10934
5.11613
5.12013
5.12132
5.11974
5.11513
5.10756
5.09716
5.08395
5.06798
5.0493
5.02795
5.00402
4.97757
4.94869
4.91748
4.88404
4.84847
4.81091
4.77147
4.73028
4.68747
4.64319
4.59755
4.55071
4.50278
4.45392
4.40424
4.35388
4.30298
4.25165
4.20004
4.14826
4.09646
4.04474
3.99324
3.9421
3.89142
3.84134
3.79199
3.74348
3.69595
3.64953
3.60434
3.56051
3.51818
3.47746
3.43847
3.40134
3.36618
3.33312
3.30231
3.27383
3.24783
3.22353
3.20051
0.0571231
0.1081
0.135453
0.155198
0.171561
0.186085
0.199515
0.212287
0.224686
0.236911
0.249112
0.261404
0.273878
0.286606
0.29965
0.313059
0.326877
0.34114
0.355881
0.371128
0.386907
0.403244
0.420162
0.437682
0.455825
0.474614
0.494069
0.514211
0.535046
0.556589
0.578874
0.60192
0.625744
0.650361
0.675791
0.702051
0.729163
0.757151
0.786038
0.815849
0.84661
0.878345
0.911081
0.944841
0.979652
1.01554
1.05252
1.09063
1.12989
1.17031
1.21192
1.25474
1.29879
1.34408
1.39063
1.43845
1.48755
1.53793
1.5896
1.64256
1.69681
1.75233
1.80911
1.86715
1.92641
1.98688
2.04852
2.11131
2.1752
2.24016
2.30614
2.37309
2.44095
2.50968
2.5792
2.64946
2.72038
2.7919
2.86393
2.93641
3.00925
3.08237
3.15568
3.22911
3.30256
3.37594
3.44916
3.52215
3.59479
3.66701
3.73872
3.80982
3.88023
3.94985
4.0186
4.0864
4.15316
4.21879
4.28322
4.34638
4.40818
4.46855
4.52742
4.58472
4.64038
4.69433
4.74652
4.79688
4.84534
4.89186
4.93636
4.97879
5.01908
5.05719
5.09303
5.12655
5.1577
5.1864
5.2126
5.23625
5.25729
5.27566
5.29133
5.30424
5.31437
5.32168
5.32613
5.3277
5.32643
5.32199
5.31439
5.30384
5.29034
5.27395
5.25468
5.2326
5.20775
5.18022
5.15007
5.11739
5.08229
5.04486
5.00522
4.9635
4.91981
4.8743
4.82708
4.77831
4.72811
4.67663
4.624
4.57035
4.51583
4.46057
4.4047
4.34838
4.29173
4.2349
4.17803
4.12126
4.06473
4.0086
3.95301
3.89811
3.84407
3.79103
3.73917
3.68866
3.63966
3.59234
3.54688
3.50343
3.46217
3.42325
3.38682
3.35301
3.32193
3.2937
3.26757
3.24342
0.0575151
0.108662
0.13617
0.156029
0.172482
0.187083
0.200582
0.213413
0.225858
0.238116
0.250334
0.262626
0.275085
0.287783
0.300781
0.31413
0.327874
0.342051
0.356696
0.371838
0.387507
0.40373
0.420534
0.437944
0.455987
0.474689
0.494076
0.51418
0.534994
0.556545
0.578891
0.60204
0.626015
0.650836
0.676525
0.703095
0.730582
0.759024
0.788453
0.818898
0.85039
0.882961
0.91664
0.951456
0.987436
1.02461
1.063
1.10264
1.14355
1.18575
1.22927
1.27412
1.32032
1.3679
1.41685
1.46718
1.51892
1.57205
1.62658
1.68251
1.73981
1.79848
1.85851
1.91986
1.98251
2.04643
2.11158
2.17793
2.24542
2.31401
2.38364
2.45426
2.52581
2.59821
2.6714
2.74531
2.81985
2.89496
2.97055
3.04653
3.12282
3.19933
3.27597
3.35265
3.42927
3.50574
3.58197
3.65786
3.73331
3.80824
3.88255
3.95615
4.02894
4.10084
4.17175
4.24159
4.31028
4.37773
4.44387
4.50862
4.57191
4.63366
4.6938
4.75227
4.80901
4.86395
4.91705
4.96824
5.01747
5.06468
5.10984
5.15287
5.19373
5.23236
5.26871
5.30271
5.33432
5.36348
5.39013
5.41421
5.43568
5.45447
5.47054
5.48384
5.49434
5.50198
5.50675
5.50863
5.5076
5.50334
5.49571
5.48502
5.4713
5.45455
5.43481
5.41211
5.3865
5.35805
5.32681
5.29286
5.2563
5.21722
5.17574
5.13196
5.08601
5.03802
4.98812
4.93645
4.88314
4.82833
4.77217
4.71478
4.65632
4.59692
4.53674
4.47591
4.41459
4.35293
4.29109
4.22922
4.16749
4.10607
4.04513
3.98484
3.92541
3.86701
3.80984
3.75413
3.70009
3.64791
3.59782
3.55003
3.50471
3.46203
3.42223
3.38547
3.35186
3.3215
3.29371
3.26868
0.0574141
0.108499
0.135977
0.155824
0.172269
0.186861
0.200347
0.213159
0.225579
0.237804
0.249982
0.262227
0.274627
0.287257
0.300176
0.313436
0.327081
0.341151
0.355682
0.370707
0.386258
0.402365
0.41906
0.436372
0.454331
0.472964
0.492304
0.512381
0.533223
0.554863
0.577331
0.600653
0.624861
0.649985
0.676062
0.703091
0.731136
0.760234
0.790428
0.821753
0.854247
0.887947
0.92289
0.959101
0.996611
1.03545
1.07564
1.11722
1.16021
1.20462
1.25048
1.2978
1.3466
1.39688
1.44866
1.50193
1.5567
1.61296
1.6707
1.72991
1.79057
1.85265
1.91613
1.98097
2.04715
2.11461
2.18331
2.2532
2.32422
2.39633
2.46945
2.54352
2.61847
2.69422
2.7707
2.84784
2.92554
3.00372
3.0823
3.16118
3.24028
3.3195
3.39875
3.47793
3.55695
3.6357
3.7141
3.79204
3.86944
3.94618
4.02219
4.09737
4.17162
4.24486
4.31699
4.38794
4.45762
4.52595
4.59286
4.65828
4.72212
4.78434
4.84485
4.90361
4.96055
5.01563
5.0688
5.12
5.1692
5.21634
5.2614
5.30431
5.34504
5.38354
5.41977
5.45366
5.48518
5.51427
5.54088
5.56495
5.58645
5.6053
5.62146
5.63488
5.64552
5.65332
5.65827
5.66037
5.65954
5.65544
5.6478
5.63704
5.62317
5.60618
5.5861
5.56295
5.53676
5.50759
5.47548
5.44052
5.40276
5.36231
5.31926
5.27373
5.22582
5.17566
5.12339
5.06914
5.01303
4.95522
4.89584
4.83503
4.77294
4.70972
4.64551
4.58049
4.51479
4.44859
4.38206
4.31538
4.24872
4.18229
4.11625
4.05083
3.98624
3.92272
3.86048
3.79968
3.74066
3.68367
3.629
3.5769
3.52761
3.48152
3.4387
3.39933
3.36348
3.3313
3.30211
3.27651
0.0569705
0.107848
0.135133
0.154858
0.171193
0.185679
0.199059
0.211767
0.224081
0.236198
0.248264
0.26039
0.272665
0.285162
0.297941
0.311055
0.324552
0.338472
0.352857
0.367742
0.383165
0.399163
0.415775
0.433039
0.450995
0.469681
0.489131
0.509382
0.530477
0.552464
0.575364
0.599206
0.624028
0.649863
0.676725
0.704655
0.733741
0.764037
0.795583
0.828419
0.862581
0.8981
0.935005
0.973331
1.01311
1.05437
1.09713
1.14145
1.18733
1.23477
1.28378
1.33436
1.38653
1.44027
1.49558
1.55246
1.61088
1.67084
1.7323
1.79525
1.85964
1.92545
1.99263
2.06113
2.13091
2.20191
2.27409
2.34737
2.4217
2.497
2.57322
2.65027
2.72809
2.80659
2.88569
2.96531
3.04537
3.12577
3.20643
3.28726
3.36816
3.44905
3.52983
3.6104
3.69067
3.77054
3.84992
3.92871
4.00683
4.08416
4.16064
4.23615
4.31062
4.38396
4.45609
4.52692
4.59637
4.66437
4.73086
4.79577
4.85903
4.92058
4.98037
5.03832
5.09441
5.1486
5.20084
5.25109
5.29932
5.34549
5.38958
5.43154
5.47135
5.50897
5.54436
5.57747
5.60826
5.6367
5.66273
5.68631
5.70739
5.72592
5.74183
5.75507
5.7656
5.77337
5.77835
5.78059
5.77991
5.77598
5.76836
5.75759
5.74365
5.72655
5.70628
5.68285
5.6563
5.62664
5.59392
5.5582
5.51954
5.47801
5.43371
5.38673
5.33719
5.2852
5.2309
5.1744
5.11585
5.05538
4.99313
4.92924
4.86386
4.79715
4.72927
4.66037
4.59063
4.52022
4.44932
4.37814
4.30684
4.23559
4.16465
4.09426
4.02469
3.95619
3.88903
3.82364
3.7602
3.69897
3.64027
3.58442
3.53177
3.48243
3.43672
3.39485
3.35692
3.32308
3.29269
3.26681
0.0561241
0.106514
0.133445
0.152919
0.169034
0.183317
0.196509
0.209041
0.221194
0.233162
0.245089
0.257087
0.269241
0.281626
0.294305
0.307333
0.320762
0.334639
0.349012
0.363926
0.379424
0.395552
0.412357
0.429892
0.448221
0.467367
0.487371
0.508281
0.530139
0.552967
0.576779
0.601667
0.627694
0.654921
0.68342
0.713235
0.744415
0.777011
0.811064
0.846612
0.883687
0.922317
0.962524
1.00433
1.04775
1.09281
1.13951
1.18785
1.23783
1.28945
1.34268
1.39753
1.45397
1.51198
1.57155
1.63263
1.6952
1.75921
1.82464
1.89143
1.95954
2.02892
2.09951
2.17127
2.24414
2.31804
2.39294
2.46875
2.54541
2.62285
2.70101
2.77982
2.85919
2.93904
3.01932
3.09992
3.18078
3.2618
3.34292
3.42402
3.50505
3.58589
3.66647
3.7467
3.82649
3.90574
3.98437
4.06229
4.13942
4.21565
4.29092
4.36512