/*--------------------------------*- C++ -*----------------------------------*\
  =========                 |
  \\      /  F ield         | OpenFOAM: The Open Source CFD Toolbox
   \\    /   O peration     | Website:  https://openfoam.org
    \\  /    A nd           | Version:  6
     \\/     M anipulation  |
\*---------------------------------------------------------------------------*/
FoamFile
{
    version     2.0;
    format      ascii;
    class       volScalarField;
    location    "200";
    object      nut;
}
// * * * * * * * * * * * * * * * * * * * * * * * * * * * * * * * * * * * * * //

dimensions      [0 2 -1 0 0 0 0];

internalField   nonuniform List<scalar> 
12225
(
4.14924e-05
3.93409e-05
3.74829e-05
3.5433e-05
3.37838e-05
3.24211e-05
3.15093e-05
3.09116e-05
3.09179e-05
3.10948e-05
3.15729e-05
3.21008e-05
3.31609e-05
3.3797e-05
3.51314e-05
3.56782e-05
3.7375e-05
3.66569e-05
0.000332215
0.000215176
0.000179269
0.000157677
0.000146208
0.000138209
0.000132729
0.000131666
0.000129494
0.00013008
0.000129032
0.000129456
0.000128644
0.000128574
0.000128074
0.000127416
0.000127414
0.000126488
0.000668679
0.000450661
0.000355751
0.000309835
0.000275275
0.000251103
0.000231698
0.000217283
0.000202656
0.000192134
0.000182598
0.000175212
0.000169357
0.000163673
0.000160282
0.000155544
0.000153783
0.000149828
0.000801681
0.000691666
0.000572542
0.000500062
0.000449369
0.000411995
0.000380759
0.000356015
0.000333985
0.000314788
0.000298302
0.000281714
0.000270284
0.000256051
0.000248173
0.000236131
0.000230348
0.000220411
0.000839623
0.00081019
0.000740695
0.000676421
0.000623918
0.000581394
0.000545852
0.000514564
0.000489501
0.00046443
0.000445842
0.000424063
0.000409916
0.000390783
0.000379853
0.000363061
0.000354423
0.000339466
0.000850344
0.000843278
0.000819552
0.000786529
0.000750764
0.000715889
0.000685747
0.000656132
0.000632538
0.000607513
0.000588985
0.000567235
0.000552265
0.000533076
0.000520751
0.000503699
0.000493259
0.000477446
0.000851579
0.000851019
0.000843299
0.000833478
0.000817108
0.000796952
0.000777866
0.000756734
0.000738895
0.000719141
0.000703525
0.00068561
0.000672109
0.000655905
0.000644282
0.000629505
0.000619473
0.000605121
0.000851581
0.000851816
0.000850037
0.000847462
0.0008414
0.00083375
0.000824822
0.000813432
0.000802808
0.000790467
0.00077971
0.000767533
0.000757415
0.000745771
0.000736522
0.00072551
0.000717127
0.000706017
0.000851673
0.000851531
0.000851015
0.000850343
0.000848875
0.00084617
0.000843026
0.000838304
0.000833402
0.000827359
0.000821213
0.000814769
0.000808403
0.000801519
0.000795231
0.000788406
0.000782155
0.000775243
0.000851754
0.000851386
0.000851043
0.000850633
0.000850247
0.000849368
0.000848404
0.00084678
0.000844955
0.000842529
0.000839922
0.000836798
0.000833791
0.000830149
0.000826965
0.00082292
0.000819892
0.000815289
0.000851784
0.000851358
0.000851012
0.000850613
0.000850329
0.000849905
0.000849525
0.000848928
0.000848303
0.000847393
0.000846465
0.000845176
0.000843989
0.00084235
0.000840994
0.000839029
0.000837635
0.000835357
0.000851788
0.000851359
0.000850995
0.000850605
0.000850292
0.000849938
0.000849646
0.00084928
0.000848955
0.000848504
0.000848098
0.000847507
0.000846997
0.000846243
0.00084564
0.000844719
0.000844056
0.000842974
0.000851786
0.000851363
0.000850985
0.000850604
0.000850269
0.000849926
0.00084963
0.000849313
0.000849042
0.000848728
0.000848462
0.000848126
0.000847843
0.000847465
0.000847156
0.000846725
0.000846386
0.000845901
0.000851783
0.000851364
0.000850978
0.000850602
0.000850256
0.000849916
0.000849607
0.0008493
0.000849022
0.00084874
0.000848488
0.000848224
0.000847988
0.000847734
0.000847508
0.000847257
0.000847033
0.000846783
0.000851781
0.000851364
0.000850973
0.000850598
0.000850246
0.000849908
0.000849591
0.000849286
0.000849
0.000848723
0.000848463
0.000848211
0.000847975
0.000847744
0.000847527
0.000847316
0.000847115
0.000846919
0.00085178
0.000851363
0.000850969
0.000850594
0.000850239
0.000849901
0.00084958
0.000849275
0.000848984
0.000848707
0.000848443
0.000848191
0.000847951
0.000847721
0.000847502
0.000847293
0.000847093
0.000846901
0.000851779
0.000851362
0.000850967
0.000850591
0.000850234
0.000849895
0.000849572
0.000849265
0.000848973
0.000848694
0.000848428
0.000848175
0.000847933
0.000847701
0.00084748
0.000847269
0.000847067
0.000846874
0.000851779
0.000851362
0.000850965
0.000850588
0.000850231
0.00084989
0.000849567
0.000849259
0.000848965
0.000848685
0.000848418
0.000848163
0.00084792
0.000847687
0.000847465
0.000847252
0.000847049
0.000846854
0.000851779
0.000851362
0.000850965
0.000850588
0.00085023
0.000849889
0.000849565
0.000849256
0.000848962
0.000848681
0.000848414
0.000848158
0.000847914
0.00084768
0.000847457
0.000847243
0.000847039
0.000846844
0.000851779
0.000851362
0.000850966
0.000850589
0.000850231
0.000849891
0.000849567
0.000849259
0.000848965
0.000848685
0.000848417
0.000848162
0.000847917
0.000847684
0.00084746
0.000847246
0.000847041
0.000846845
0.000851779
0.000851363
0.000850967
0.000850592
0.000850235
0.000849897
0.000849573
0.000849267
0.000848972
0.000848694
0.000848424
0.000848169
0.00084792
0.000847683
0.000847451
0.000847231
0.000847013
0.000846806
0.000851778
0.000851366
0.000850968
0.000850599
0.00085024
0.000849907
0.00084958
0.000849274
0.000848964
0.000848671
0.000848365
0.000848072
0.000847756
0.000847456
0.000847123
0.000846811
0.000846457
0.000846136
0.000851773
0.000851376
0.000850971
0.000850615
0.000850241
0.000849889
0.000849478
0.000849054
0.000848529
0.000847978
0.000847301
0.000846605
0.000845767
0.000844939
0.000843955
0.000843029
0.000841918
0.00084094
0.000851768
0.000851415
0.000850964
0.000850548
0.000849861
0.000848966
0.00084761
0.000845976
0.000843905
0.000841636
0.000838955
0.000836214
0.000833117
0.000830114
0.000826763
0.00082368
0.000820184
0.000817178
0.000851859
0.00085138
0.000850195
0.000848243
0.00084447
0.000839354
0.000832765
0.000825658
0.000817962
0.000810011
0.000801618
0.000793628
0.000785332
0.000777707
0.000769744
0.000762701
0.000755124
0.000748795
0.000852108
0.000847667
0.000839902
0.000827146
0.000808707
0.000789646
0.000769975
0.000751413
0.000733305
0.000716896
0.000700934
0.000686781
0.000672831
0.000660671
0.000648379
0.000637942
0.000626955
0.000618021
0.000843241
0.000822506
0.000775185
0.000726459
0.000684894
0.000649852
0.000618461
0.00059202
0.000568382
0.000548312
0.000529689
0.000513992
0.000498752
0.000486017
0.000473203
0.00046271
0.000451624
0.000442807
0.000795685
0.000668241
0.000570627
0.000509905
0.000465605
0.000431183
0.000404146
0.000382481
0.0003642
0.00034907
0.000335942
0.000325062
0.000314508
0.000306237
0.000297961
0.000291369
0.000284283
0.000278933
0.000501314
0.000348356
0.000292674
0.00025918
0.000236323
0.000221177
0.000211621
0.000203855
0.000198564
0.000195076
0.000192221
0.000190368
0.000188583
0.000187438
0.000186166
0.000185472
0.000184555
0.000184142
7.27384e-05
7.02255e-05
6.79541e-05
6.56137e-05
6.33828e-05
6.12762e-05
5.94944e-05
5.79551e-05
5.67109e-05
5.57031e-05
5.49776e-05
5.44178e-05
5.41096e-05
5.38809e-05
5.38974e-05
5.39325e-05
5.40913e-05
5.43237e-05
4.83896e-07
1.07389e-05
1.91244e-05
2.70449e-05
3.54266e-05
4.43708e-05
5.39553e-05
6.41454e-05
7.47697e-05
8.56266e-05
9.64876e-05
0.000107173
0.000117505
0.000127358
0.000136601
0.000145149
0.000152923
0.000159918
0.000166182
0.000171895
0.000177359
0.000182122
0.000187111
0.000196343
0.000206988
0.000219323
0.000230827
0.000238366
0.000236245
0.000230977
0.000219652
0.000210057
0.000202104
0.000182451
3.82898e-05
4.54655e-05
4.76736e-05
4.84412e-05
4.95782e-05
5.07414e-05
5.18489e-05
5.29943e-05
5.41126e-05
5.52424e-05
5.63623e-05
5.74824e-05
5.85984e-05
5.97117e-05
6.08223e-05
6.19296e-05
6.30349e-05
6.41368e-05
6.52368e-05
6.63337e-05
6.74284e-05
6.85199e-05
6.96091e-05
7.0695e-05
7.17781e-05
7.28576e-05
7.39338e-05
7.50059e-05
7.60741e-05
7.71375e-05
7.81963e-05
7.92496e-05
8.02974e-05
8.13389e-05
8.2374e-05
8.34019e-05
8.44224e-05
8.54346e-05
8.64385e-05
8.74329e-05
8.84178e-05
8.93923e-05
9.0356e-05
9.13082e-05
9.22484e-05
9.3176e-05
9.40903e-05
9.49905e-05
9.58762e-05
9.67463e-05
9.76002e-05
9.84369e-05
9.92555e-05
0.000100055
0.000100834
0.000101591
0.000102325
0.000103034
0.000103718
0.000104377
0.000105017
0.000105639
0.000106237
0.000106811
0.000107363
0.00010789
0.000108393
0.000108871
0.000109323
0.000109748
0.000110147
0.000110518
0.000110861
0.000111175
0.00011146
0.000111716
0.000111941
0.000112135
0.000112298
0.00011243
0.000112529
0.000112596
0.00011263
0.000112631
0.000112598
0.000112533
0.000112434
0.000112302
0.000112136
0.000111924
0.000111683
0.000111426
0.000111138
0.000110806
0.000110444
0.00011005
0.000109625
0.000109169
0.000108684
0.000108169
0.000107627
0.000107057
0.00010646
0.000105841
0.000105202
0.000104542
0.000103865
0.000103172
0.000102464
0.000101745
0.000101016
0.000100278
9.95357e-05
9.87888e-05
9.8042e-05
9.72949e-05
9.65517e-05
9.58112e-05
9.50784e-05
9.43528e-05
9.36399e-05
9.29377e-05
9.22523e-05
9.15822e-05
9.09322e-05
9.03001e-05
8.96925e-05
8.91073e-05
8.85482e-05
8.8019e-05
8.75697e-05
8.76395e-05
8.75258e-05
8.72539e-05
8.70368e-05
8.68554e-05
8.67238e-05
8.66074e-05
8.65019e-05
8.6429e-05
8.63765e-05
8.63857e-05
8.63178e-05
8.62229e-05
8.60158e-05
8.47609e-05
2.08531e-06
3.88813e-05
8.19268e-05
0.000111552
0.000131378
0.000146551
0.000159802
0.000172483
0.000185117
0.000197795
0.000210405
0.000222765
0.000234682
0.000245979
0.000256494
0.000266095
0.000274686
0.00028223
0.000288789
0.00029456
0.000299929
0.000305165
0.000310103
0.000315214
0.000320439
0.000325242
0.000328573
0.000327265
0.000321477
0.000311745
0.000297426
0.000281689
0.000278631
0.000255032
0.000243343
0.000261561
0.00027251
0.000278644
0.000285644
0.00029283
0.000300501
0.000308188
0.000316059
0.000324012
0.000332069
0.000340204
0.000348418
0.000356703
0.000365061
0.000373488
0.000381989
0.000390562
0.000399212
0.000407938
0.000416745
0.000425632
0.000434605
0.000443661
0.000452806
0.000462037
0.00047136
0.00048077
0.000490272
0.000499861
0.000509543
0.000519311
0.000529169
0.00053911
0.000549137
0.000559244
0.000569432
0.000579694
0.000590032
0.000600437
0.000610911
0.000621445
0.000632039
0.000642685
0.000653383
0.000664125
0.000674911
0.000685734
0.000696593
0.000707481
0.000718397
0.000729333
0.000740287
0.000751246
0.000762201
0.000773129
0.000783993
0.000794726
0.000805212
0.000815267
0.000824587
0.000833722
0.000842747
0.000851659
0.000860448
0.000869107
0.000877626
0.000885996
0.000894205
0.000902243
0.0009101
0.000917764
0.000925225
0.000932471
0.00093949
0.000946271
0.000952802
0.000959074
0.000965071
0.000970787
0.000976207
0.000981323
0.000986125
0.000990606
0.000994758
0.000998581
0.00100208
0.00100527
0.00100816
0.00101037
0.0010121
0.00101386
0.00101535
0.00101632
0.00101692
0.00101716
0.00101703
0.00101655
0.00101572
0.00101455
0.00101306
0.00101125
0.00100914
0.00100675
0.00100408
0.00100115
0.000997973
0.000994575
0.000990979
0.000987204
0.000983274
0.000979209
0.000975038
0.00097078
0.000966463
0.000962103
0.000957729
0.000953353
0.000949009
0.000944712
0.000940494
0.000936367
0.000932364
0.000928496
0.00092479
0.000921254
0.000917915
0.000914769
0.000911833
0.000909102
0.000906569
0.000904126
0.000899578
0.00089507
0.000890763
0.00088654
0.000882549
0.000878467
0.000874226
0.000869884
0.000865459
0.000861057
0.000856141
0.000849957
0.000841288
0.00081701
4.1515e-06
6.08891e-05
0.000126076
0.000175792
0.000212087
0.00023888
0.000259721
0.000277132
0.000292688
0.000307247
0.000321192
0.000334629
0.000347515
0.000359739
0.000371169
0.000381682
0.000391181
0.000399624
0.000407044
0.000413558
0.000419347
0.000424868
0.000431174
0.000438633
0.000447067
0.00045595
0.000464174
0.000470904
0.000475895
0.000479508
0.000482853
0.000487207
0.000493837
0.000499121
0.000510779
0.000528495
0.00054456
0.000559882
0.000575408
0.000591022
0.000606874
0.000622865
0.000639021
0.000655315
0.000671748
0.000688312
0.000705006
0.000721829
0.000738783
0.00075587
0.000773093
0.000790456
0.000807962
0.000825614
0.000843416
0.00086137
0.000879477
0.00089774
0.000916159
0.000934735
0.000953468
0.000972356
0.000991398
0.00101059
0.00102994
0.00104943
0.00106906
0.00108883
0.00110873
0.00112875
0.0011489
0.00116916
0.00118952
0.00120998
0.00123053
0.00125116
0.00127186
0.00129262
0.00131344
0.00133429
0.00135518
0.0013761
0.00139702
0.00141794
0.00143884
0.00145971
0.00148054
0.00150128
0.00152193
0.00154242
0.00156271
0.00158272
0.00160236
0.00162154
0.00164027
0.00165876
0.00167702
0.00169504
0.00171279
0.00173027
0.00174746
0.00176432
0.00178085
0.00179701
0.0018128
0.00182818
0.00184314
0.00185766
0.0018717
0.00188526
0.0018983
0.0019108
0.00192274
0.00193411
0.00194487
0.00195502
0.00196453
0.00197338
0.00198157
0.00198908
0.0019959
0.00200205
0.00200773
0.00201236
0.00201578
0.0020189
0.00202158
0.00202335
0.00202435
0.0020246
0.00202412
0.00202292
0.00202102
0.00201843
0.00201517
0.00201128
0.00200676
0.00200166
0.001996
0.0019898
0.00198311
0.00197597
0.00196843
0.00196051
0.00195228
0.00194377
0.00193504
0.00192612
0.00191706
0.00190792
0.00189872
0.00188953
0.00188037
0.00187131
0.00186238
0.00185363
0.00184509
0.00183681
0.00182882
0.00182114
0.00181382
0.00180685
0.00180024
0.00179399
0.00178803
0.00178199
0.00177448
0.00176695
0.00175935
0.00175192
0.00174504
0.00173787
0.0017302
0.00172235
0.00171474
0.00170706
0.0016984
0.00168701
0.00167065
0.00163115
6.32046e-06
7.7531e-05
0.000159431
0.000223921
0.000272323
0.000308723
0.000336888
0.000359677
0.000379096
0.000396436
0.000412457
0.000427552
0.000441889
0.000455501
0.000468362
0.00048043
0.000491682
0.000502153
0.000511963
0.000521349
0.000530682
0.000540463
0.000551244
0.00056336
0.000576844
0.000591426
0.000606549
0.000621687
0.000636607
0.000651474
0.000666764
0.000682908
0.000699637
0.000718311
0.000739215
0.000761655
0.000783792
0.000805821
0.000828059
0.000850506
0.000873134
0.000895926
0.000918886
0.00094201
0.0009653
0.000988757
0.00101238
0.00103618
0.00106014
0.00108429
0.00110862
0.00113314
0.00115785
0.00118277
0.00120788
0.0012332
0.00125872
0.00128445
0.00131038
0.00133652
0.00136286
0.00138939
0.00141613
0.00144305
0.00147017
0.00149746
0.00152492
0.00155255
0.00158033
0.00160827
0.00163633
0.00166453
0.00169284
0.00172125
0.00174975
0.00177833
0.00180697
0.00183566
0.00186438
0.00189312
0.00192186
0.00195059
0.00197929
0.00200793
0.0020365
0.00206498
0.00209332
0.00212151
0.00214951
0.00217727
0.00220474
0.00223188
0.00225861
0.0022849
0.00231082
0.00233642
0.0023617
0.00238663
0.0024112
0.00243538
0.00245915
0.00248247
0.00250532
0.00252768
0.00254952
0.0025708
0.0025915
0.00261159
0.00263105
0.00264983
0.00266792
0.00268528
0.00270188
0.00271769
0.00273269
0.00274685
0.00276015
0.00277256
0.00278407
0.00279464
0.00280428
0.00281296
0.00282095
0.00282786
0.00283308
0.00283752
0.00284137
0.00284407
0.0028457
0.00284629
0.00284586
0.00284442
0.00284199
0.0028386
0.00283428
0.00282904
0.00282293
0.00281598
0.00280823
0.00279973
0.00279052
0.00278066
0.00277021
0.00275922
0.00274777
0.0027359
0.00272368
0.00271117
0.00269844
0.00268555
0.00267257
0.00265955
0.00264657
0.00263368
0.00262095
0.00260843
0.00259619
0.00258428
0.00257274
0.00256162
0.00255095
0.00254075
0.00253104
0.00252181
0.00251298
0.00250425
0.0024949
0.00248552
0.00247614
0.00246706
0.00245823
0.00244952
0.00244054
0.00243148
0.00242245
0.00241309
0.00240272
0.00238965
0.00237003
0.00232816
8.41592e-06
9.13922e-05
0.000187083
0.000263765
0.000322739
0.000367708
0.000402648
0.00043068
0.000454105
0.000474533
0.000493023
0.000510234
0.00052655
0.000542179
0.000557231
0.000571776
0.000585879
0.000599644
0.000613234
0.000626893
0.000640948
0.00065578
0.000671755
0.000689121
0.00070792
0.000727947
0.000748889
0.000770446
0.000792444
0.000814906
0.000838033
0.000862077
0.000886608
0.000911902
0.000938098
0.000964864
0.000992018
0.00101942
0.00104695
0.00107461
0.00110244
0.00113045
0.00115864
0.00118703
0.00121562
0.0012444
0.00127338
0.00130257
0.00133196
0.00136156
0.00139136
0.00142139
0.00145165
0.00148215
0.00151288
0.00154385
0.00157505
0.00160649
0.00163816
0.00167006
0.00170219
0.00173453
0.00176709
0.00179986
0.00183283
0.00186599
0.00189932
0.00193283
0.00196649
0.0020003
0.00203424
0.00206829
0.00210245
0.00213669
0.00217101
0.00220537
0.00223978
0.0022742
0.00230862
0.00234303
0.00237739
0.00241169
0.00244591
0.00248002
0.00251401
0.00254783
0.00258147
0.00261489
0.00264806
0.00268095
0.00271351
0.00274573
0.00277757
0.00280903
0.00284012
0.00287083
0.00290116
0.00293108
0.00296057
0.00298959
0.00301812
0.00304614
0.0030736
0.00310049
0.00312677
0.0031524
0.00317736
0.00320162
0.00322513
0.00324787
0.0032698
0.0032909
0.00331111
0.00333042
0.00334878
0.00336617
0.00338256
0.00339792
0.00341221
0.00342543
0.00343753
0.0034485
0.00345859
0.00346761
0.0034748
0.00348071
0.00348591
0.00348979
0.00349241
0.00349377
0.0034939
0.00349281
0.00349052
0.00348705
0.00348244
0.00347671
0.00346991
0.00346207
0.00345324
0.00344347
0.00343282
0.00342135
0.00340913
0.00339623
0.00338271
0.00336865
0.00335412
0.00333919
0.00332396
0.00330848
0.00329284
0.00327711
0.00326138
0.00324573
0.00323022
0.00321493
0.00319994
0.00318531
0.0031711
0.00315737
0.00314416
0.00313152
0.00311945
0.00310798
0.00309704
0.00308645
0.00307583
0.00306536
0.00305507
0.0030451
0.00303532
0.00302577
0.00301619
0.00300663
0.00299704
0.00298716
0.00297641
0.00296336
0.00294429
0.00290572
1.0374e-05
0.000102969
0.000210178
0.000297365
0.000365769
0.000418641
0.000460062
0.000493325
0.000520946
0.000544775
0.000566117
0.000585858
0.000604581
0.000622664
0.000640351
0.000657814
0.000675193
0.00069263
0.000710289
0.000728368
0.000747101
0.000766732
0.00078748
0.000809487
0.00083277
0.000857222
0.000882652
0.00090886
0.000935697
0.000963107
0.000991116
0.00101974
0.00104892
0.00107865
0.00110893
0.00113965
0.00117069
0.001202
0.00123352
0.00126522
0.00129712
0.00132922
0.00136151
0.00139401
0.00142672
0.00145964
0.00149278
0.00152614
0.00155973
0.00159356
0.00162764
0.00166195
0.0016965
0.00173128
0.0017663
0.00180156
0.00183706
0.00187278
0.00190874
0.00194491
0.00198131
0.00201792
0.00205473
0.00209174
0.00212893
0.0021663
0.00220383
0.00224151
0.00227932
0.00231726
0.00235531
0.00239345
0.00243167
0.00246995
0.00250828
0.00254662
0.00258498
0.00262332
0.00266163
0.00269988
0.00273806
0.00277615
0.00281412
0.00285195
0.00288961
0.00292709
0.00296434
0.00300136
0.0030381
0.00307455
0.00311067
0.00314646
0.00318189
0.00321694
0.00325161
0.00328588
0.00331973
0.00335314
0.00338608
0.00341853
0.00345045
0.00348182
0.0035126
0.00354277
0.00357229
0.00360114
0.00362927
0.00365665
0.00368325
0.00370904
0.00373397
0.00375801
0.00378111
0.00380326
0.0038244
0.0038445
0.00386353
0.00388146
0.00389824
0.00391385
0.00392826
0.00394143
0.00395356
0.00396465
0.00397395
0.00398158
0.00398836
0.00399373
0.0039977
0.00400026
0.00400142
0.0040012
0.00399963
0.00399671
0.00399249
0.00398698
0.00398024
0.00397229
0.0039632
0.003953
0.00394177
0.00392957
0.00391647
0.00390254
0.00388786
0.00387251
0.00385656
0.0038401
0.00382322
0.00380601
0.00378854
0.00377092
0.00375322
0.00373555
0.00371798
0.00370061
0.00368351
0.00366678
0.00365047
0.00363467
0.00361943
0.0036048
0.00359083
0.00357753
0.00356489
0.0035528
0.00354107
0.00352972
0.00351875
0.00350822
0.00349809
0.0034883
0.00347872
0.00346932
0.00346003
0.0034506
0.00344058
0.00342879
0.00341201
0.00337995
1.21456e-05
0.000112512
0.000229307
0.000325629
0.000402489
0.000462766
0.000510461
0.000548978
0.00058098
0.00060849
0.000632999
0.000655579
0.00067698
0.000697723
0.000718168
0.000738572
0.00075913
0.000780004
0.000801346
0.000823307
0.000846039
0.000869684
0.00089436
0.000920133
0.000947003
0.0009749
0.00100371
0.00103329
0.00106354
0.00109438
0.00112578
0.0011577
0.00119012
0.00122301
0.00125633
0.00129003
0.00132404
0.00135831
0.00139282
0.00142754
0.00146247
0.00149761
0.00153294
0.00156848
0.00160424
0.0016402
0.00167638
0.00171278
0.00174941
0.00178627
0.00182336
0.00186068
0.00189823
0.00193601
0.00197401
0.00201225
0.00205071
0.00208939
0.00212829
0.0021674
0.00220671
0.00224622
0.00228592
0.0023258
0.00236584
0.00240605
0.0024464
0.00248688
0.00252748
0.00256818
0.00260898
0.00264984
0.00269077
0.00273173
0.00277272
0.00281371
0.00285469
0.00289563
0.00293652
0.00297734
0.00301807
0.00305868
0.00309916
0.00313948
0.00317962
0.00321955
0.00325926
0.00329873
0.00333792
0.00337681
0.0034154
0.00345365
0.00349155
0.00352908
0.00356623
0.00360297
0.0036393
0.00367517
0.00371058
0.00374548
0.00377986
0.00381369
0.00384694
0.00387957
0.00391156
0.00394287
0.00397347
0.00400333
0.0040324
0.00406066
0.00408807
0.00411458
0.00414015
0.00416476
0.00418835
0.00421088
0.00423233
0.00425264
0.00427178
0.00428972
0.00430641
0.00432181
0.00433606
0.00434925
0.00436073
0.00437049
0.00437905
0.00438621
0.00439187
0.004396
0.00439861
0.00439971
0.00439932
0.00439746
0.00439415
0.00438942
0.00438331
0.00437585
0.0043671
0.0043571
0.00434591
0.00433361
0.00432025
0.00430593
0.00429071
0.00427467
0.00425791
0.0042405
0.00422255
0.00420415
0.00418538
0.00416636
0.00414718
0.00412793
0.00410872
0.00408964
0.0040708
0.00405227
0.00403416
0.00401654
0.0039995
0.00398309
0.00396738
0.00395242
0.00393821
0.00392471
0.00391184
0.00389958
0.00388792
0.00387688
0.00386642
0.00385652
0.00384709
0.00383808
0.00382941
0.00382089
0.00381219
0.00380232
0.00378866
0.00376408
1.36954e-05
0.000120197
0.000244851
0.000349321
0.000433565
0.000500716
0.000554447
0.000598188
0.00063468
0.00066606
0.00069395
0.000719559
0.000743769
0.000767216
0.000790353
0.000813504
0.000836909
0.000860745
0.000885155
0.000910257
0.000936155
0.000962933
0.000990646
0.00101932
0.00104893
0.00107943
0.00111075
0.00114279
0.00117547
0.00120872
0.0012425
0.00127676
0.00131148
0.0013466
0.00138211
0.00141796
0.0014541
0.00149049
0.00152712
0.00156396
0.001601
0.00163824
0.00167567
0.00171329
0.00175112
0.00178914
0.00182737
0.0018658
0.00190445
0.0019433
0.00198237
0.00202165
0.00206115
0.00210085
0.00214077
0.00218089
0.00222123
0.00226176
0.0023025
0.00234342
0.00238454
0.00242583
0.00246729
0.00250892
0.0025507
0.00259262
0.00263467
0.00267684
0.00271911
0.00276147
0.00280391
0.00284642
0.00288897
0.00293155
0.00297415
0.00301674
0.00305931
0.00310185
0.00314433
0.00318673
0.00322904
0.00327123
0.00331329
0.00335519
0.00339692
0.00343845
0.00347977
0.00352085
0.00356167
0.00360222
0.00364248
0.00368242
0.00372203
0.0037613
0.0038002
0.00383871
0.00387682
0.00391449
0.00395172
0.00398847
0.00402472
0.00406045
0.00409561
0.0041302
0.00416417
0.00419749
0.00423014
0.00426207
0.00429326
0.00432366
0.00435325
0.00438196
0.00440978
0.00443665
0.00446253
0.00448738
0.00451115
0.0045338
0.00455529
0.00457558
0.00459461
0.00461235
0.00462887
0.00464428
0.00465803
0.00467016
0.00468083
0.00469008
0.00469776
0.0047038
0.00470821
0.004711
0.00471219
0.00471179
0.00470982
0.0047063
0.00470126
0.00469475
0.00468679
0.00467744
0.00466675
0.0046548
0.00464164
0.00462735
0.00461201
0.00459571
0.00457852
0.00456055
0.00454188
0.00452262
0.00450287
0.00448273
0.00446231
0.00444172
0.00442106
0.00440045
0.00437999
0.00435979
0.00433995
0.00432057
0.00430175
0.00428357
0.00426611
0.00424945
0.00423361
0.00421863
0.00420447
0.00419113
0.00417861
0.00416693
0.00415607
0.00414602
0.00413672
0.00412815
0.00412024
0.00411287
0.00410577
0.00409818
0.00408798
0.00407032
1.50017e-05
0.000126187
0.000257149
0.000368586
0.000459391
0.000532859
0.000592318
0.000641156
0.000682136
0.000717454
0.000748818
0.00077753
0.000804568
0.000830654
0.000856318
0.000881944
0.000907802
0.000934086
0.000960932
0.000988444
0.00101669
0.00104579
0.00107574
0.00110654
0.00113814
0.00117052
0.0012036
0.00123734
0.00127166
0.00130652
0.00134185
0.00137763
0.00141381
0.00145037
0.00148729
0.00152453
0.00156204
0.00159977
0.0016377
0.00167583
0.00171413
0.00175261
0.00179125
0.00183007
0.00186907
0.00190824
0.00194759
0.00198712
0.00202684
0.00206674
0.00210683
0.00214712
0.00218759
0.00222825
0.00226911
0.00231015
0.00235139
0.0023928
0.0024344
0.00247618
0.00251813
0.00256025
0.00260253
0.00264496
0.00268754
0.00273026
0.0027731
0.00281606
0.00285912
0.00290228
0.00294551
0.00298882
0.00303218
0.00307558
0.003119
0.00316243
0.00320585
0.00324925
0.00329261
0.00333591
0.00337913
0.00342225
0.00346526
0.00350814
0.00355087
0.00359342
0.00363579
0.00367795
0.00371988
0.00376157
0.00380299
0.00384414
0.00388498
0.00392551
0.0039657
0.00400554
0.00404501
0.00408409
0.00412275
0.00416097
0.00419873
0.00423601
0.00427277
0.004309
0.00434467
0.00437974
0.00441419
0.00444797
0.00448107
0.00451344
0.00454504
0.00457583
0.00460578
0.00463483
0.00466294
0.00469007
0.00471616
0.00474118
0.00476506
0.00478777
0.00480925
0.00482945
0.00484843
0.00486619
0.0048824
0.00489707
0.00491017
0.0049218
0.00493179
0.00494005
0.00494658
0.00495138
0.00495449
0.00495589
0.00495562
0.00495367
0.00495007
0.00494486
0.00493806
0.00492971
0.00491988
0.00490862
0.00489598
0.00488206
0.00486691
0.00485062
0.00483329
0.004815
0.00479584
0.00477594
0.00475537
0.00473427
0.00471274
0.0046909
0.00466887
0.00464677
0.00462471
0.00460282
0.00458122
0.00456001
0.00453932
0.00451926
0.00449992
0.00448141
0.00446379
0.00444713
0.00443146
0.0044168
0.0044032
0.00439066
0.00437922
0.00436887
0.0043596
0.00435142
0.00434428
0.00433812
0.00433276
0.00432757
0.0043209
0.0043092
1.60545e-05
0.000130633
0.00026647
0.00038372
0.000480275
0.000559457
0.000624251
0.000677951
0.000723294
0.000762493
0.000797297
0.000829068
0.000858849
0.000887419
0.000915362
0.000943176
0.000971124
0.000999397
0.00102813
0.00105741
0.00108727
0.00111788
0.00114924
0.00118135
0.00121417
0.00124767
0.00128181
0.00131653
0.00135179
0.00138754
0.00142373
0.00146033
0.0014973
0.0015346
0.00157223
0.00161013
0.00164819
0.00168649
0.00172497
0.00176358
0.00180233
0.00184121
0.00188022
0.00191936
0.00195864
0.00199807
0.00203765
0.00207738
0.00211727
0.00215732
0.00219753
0.00223791
0.00227847
0.00231919
0.00236009
0.00240117
0.00244242
0.00248385
0.00252546
0.00256724
0.0026092
0.00265133
0.00269363
0.00273608
0.0027787
0.00282146
0.00286437
0.00290742
0.00295059
0.00299388
0.00303728
0.00308077
0.00312434
0.00316799
0.00321169
0.00325544
0.00329921
0.00334299
0.00338677
0.00343052
0.00347423
0.00351789
0.00356147
0.00360496
0.00364833
0.00369157
0.00373466
0.00377759
0.00382032
0.00386285
0.00390516
0.00394723
0.00398904
0.00403057
0.00407181
0.00411274
0.00415333
0.00419358
0.00423346
0.00427294
0.00431202
0.00435066
0.00438884
0.00442655
0.00446375
0.00450042
0.00453653
0.00457204
0.00460694
0.00464117
0.00467471
0.00470752
0.00473955
0.00477075
0.00480108
0.0048305
0.00485894
0.00488637
0.00491272
0.00493794
0.00496198
0.00498478
0.00500636
0.00502665
0.0050455
0.00506288
0.0050787
0.00509296
0.00510558
0.00511632
0.00512524
0.00513235
0.00513767
0.00514119
0.00514292
0.00514285
0.00514101
0.00513741
0.00513208
0.00512505
0.00511637
0.00510608
0.00509425
0.00508094
0.00506623
0.0050502
0.00503293
0.00501451
0.00499504
0.00497463
0.00495339
0.00493142
0.00490886
0.00488582
0.00486243
0.00483883
0.00481514
0.0047915
0.00476804
0.0047449
0.00472221
0.0047001
0.00467871
0.00465815
0.00463855
0.00461998
0.00460255
0.00458632
0.00457136
0.00455772
0.00454546
0.00453461
0.00452522
0.00451729
0.00451085
0.00450588
0.00450224
0.00449946
0.00449624
0.00449016
1.68552e-05
0.000133691
0.000273094
0.000395036
0.000496515
0.00058075
0.000650396
0.000708611
0.000758067
0.000800957
0.000839039
0.000873713
0.000906079
0.000936909
0.000966753
0.000996152
0.00102549
0.00105504
0.00108495
0.00111535
0.00114635
0.00117803
0.00121035
0.00124328
0.00127679
0.00131085
0.00134544
0.00138051
0.00141601
0.00145191
0.00148817
0.00152476
0.00156165
0.0015988
0.00163621
0.00167391
0.00171187
0.00175005
0.00178831
0.00182663
0.001865
0.00190343
0.00194193
0.00198052
0.00201921
0.002058
0.00209691
0.00213595
0.00217512
0.00221443
0.00225388
0.00229349
0.00233327
0.00237321
0.00241333
0.00245362
0.00249411
0.00253478
0.00257565
0.00261671
0.00265797
0.00269944
0.0027411
0.00278296
0.00282501
0.00286727
0.00290971
0.00295233
0.00299513
0.0030381
0.00308123
0.00312451
0.00316793
0.00321148
0.00325513
0.00329889
0.00334273
0.00338664
0.0034306
0.00347459
0.00351859
0.00356259
0.00360656
0.0036505
0.00369436
0.00373815
0.00378183
0.00382539
0.00386881
0.00391207
0.00395515
0.00399803
0.0040407
0.00408313
0.00412531
0.00416722
0.00420884
0.00425016
0.00429115
0.0043318
0.00437209
0.00441201
0.00445152
0.00449062
0.00452927
0.00456745
0.00460515
0.00464232
0.00467895
0.004715
0.00475044
0.00478521
0.0048193
0.00485264
0.0048852
0.00491691
0.00494774
0.00497762
0.00500649
0.00503431
0.00506101
0.00508653
0.00511084
0.00513386
0.0051555
0.00517578
0.00519452
0.00521165
0.00522718
0.00524067
0.00525223
0.00526191
0.00526971
0.00527563
0.00527965
0.00528175
0.00528196
0.00528026
0.00527668
0.00527125
0.00526398
0.00525494
0.00524417
0.00523173
0.00521769
0.00520212
0.00518511
0.00516675
0.00514713
0.00512635
0.00510454
0.00508181
0.00505828
0.00503409
0.00500937
0.00498426
0.00495891
0.00493346
0.00490807
0.00488289
0.00485808
0.00483379
0.00481017
0.00478739
0.00476558
0.0047449
0.00472548
0.00470742
0.00469084
0.00467584
0.00466251
0.00465094
0.0046412
0.00463337
0.00462749
0.00462358
0.00462159
0.00462113
0.0046212
0.00462022
1.74161e-05
0.000135543
0.000277306
0.000402853
0.000508404
0.000596968
0.00067089
0.000733154
0.000786342
0.000832614
0.000873634
0.000910674
0.00094503
0.0009776
0.0010091
0.00104013
0.00107091
0.00110167
0.00113259
0.00116381
0.00119541
0.00122743
0.00125989
0.0012928
0.00132616
0.00135995
0.00139415
0.00142873
0.00146363
0.00149884
0.00153431
0.00157005
0.00160601
0.00164216
0.00167847
0.00171498
0.00175172
0.00178873
0.00182588
0.00186303
0.00190018
0.00193729
0.00197437
0.00201148
0.00204865
0.00208589
0.00212322
0.00216066
0.00219822
0.00223592
0.00227377
0.00231179
0.00234998
0.00238836
0.00242695
0.00246575
0.00250478
0.00254405
0.00258356
0.00262333
0.00266336