/*--------------------------------*- C++ -*----------------------------------*\
  =========                 |
  \\      /  F ield         | OpenFOAM: The Open Source CFD Toolbox
   \\    /   O peration     | Website:  https://openfoam.org
    \\  /    A nd           | Version:  6
     \\/     M anipulation  |
\*---------------------------------------------------------------------------*/
FoamFile
{
    version     2.0;
    format      ascii;
    class       volScalarField;
    location    "200";
    object      p;
}
// * * * * * * * * * * * * * * * * * * * * * * * * * * * * * * * * * * * * * //

dimensions      [0 2 -2 0 0 0 0];

internalField   nonuniform List<scalar> 
12225
(
-2.1446
-4.33318
-5.43314
-5.75376
-5.935
-6.10401
-6.23554
-6.33069
-6.4073
-6.4747
-6.53471
-6.5896
-6.63939
-6.68574
-6.7289
-6.76413
-6.80782
-6.77488
-5.30804
-6.07648
-6.2369
-6.14462
-6.13205
-6.19989
-6.27742
-6.34315
-6.40278
-6.46022
-6.51485
-6.56577
-6.61366
-6.65871
-6.70186
-6.73938
-6.78267
-6.80993
-5.70918
-5.69417
-5.82148
-5.8998
-5.99466
-6.11481
-6.22201
-6.30685
-6.37867
-6.44403
-6.50415
-6.55908
-6.61026
-6.65795
-6.70368
-6.74509
-6.7923
-6.83302
-5.58724
-5.53033
-5.77188
-5.93016
-6.03186
-6.13803
-6.2357
-6.31573
-6.38447
-6.44756
-6.50614
-6.56017
-6.61082
-6.65841
-6.70435
-6.74783
-6.79516
-6.84241
-5.5769
-5.60133
-5.82935
-5.97086
-6.05444
-6.14646
-6.23765
-6.31535
-6.38288
-6.44511
-6.50323
-6.55723
-6.60806
-6.65619
-6.70289
-6.74824
-6.79607
-6.84621
-5.63486
-5.6838
-5.85803
-5.98189
-6.06336
-6.15115
-6.23916
-6.31564
-6.3826
-6.4443
-6.50208
-6.55604
-6.60696
-6.65546
-6.70264
-6.74899
-6.79695
-6.84726
-5.69519
-5.73943
-5.87457
-5.99084
-6.07454
-6.15864
-6.24252
-6.31713
-6.38319
-6.44419
-6.50146
-6.5552
-6.60608
-6.65475
-6.70215
-6.74891
-6.79658
-6.84582
-5.74871
-5.78635
-5.89627
-6.00451
-6.08746
-6.16702
-6.24639
-6.31883
-6.38385
-6.44405
-6.50072
-6.55416
-6.60491
-6.6536
-6.70099
-6.74772
-6.79473
-6.84239
-5.79843
-5.83155
-5.92243
-6.02034
-6.10036
-6.17569
-6.2508
-6.32088
-6.38466
-6.44393
-6.49988
-6.55289
-6.60336
-6.65186
-6.69902
-6.74534
-6.79141
-6.83729
-5.84546
-5.8747
-5.95018
-6.03734
-6.11349
-6.18498
-6.25604
-6.32349
-6.38576
-6.44394
-6.49904
-6.55143
-6.60144
-6.64955
-6.69622
-6.74184
-6.78676
-6.83086
-5.88975
-5.91523
-5.97838
-6.0555
-6.12712
-6.19489
-6.26206
-6.3267
-6.38723
-6.44415
-6.49824
-6.54985
-6.59923
-6.64672
-6.6927
-6.73741
-6.78105
-6.82341
-5.92774
-5.95007
-6.00422
-6.07299
-6.14006
-6.20439
-6.26815
-6.33015
-6.38891
-6.44455
-6.49758
-6.54832
-6.59695
-6.64373
-6.6889
-6.73264
-6.77507
-6.81591
-5.96282
-5.98252
-6.0293
-6.09063
-6.15307
-6.21401
-6.27455
-6.33392
-6.39083
-6.44509
-6.49698
-6.54675
-6.59452
-6.64046
-6.68474
-6.72745
-6.76865
-6.80808
-5.99957
-6.01674
-6.05672
-6.11068
-6.16795
-6.22505
-6.28212
-6.33855
-6.39327
-6.44584
-6.49633
-6.54487
-6.59154
-6.63641
-6.67956
-6.72103
-6.76085
-6.7988
-6.03673
-6.0515
-6.08546
-6.1325
-6.18433
-6.23727
-6.29067
-6.34394
-6.39615
-6.44672
-6.49554
-6.54259
-6.58789
-6.63143
-6.67323
-6.7133
-6.75163
-6.78804
-6.07234
-6.08496
-6.11386
-6.15478
-6.2013
-6.24997
-6.29967
-6.34969
-6.39918
-6.44752
-6.49441
-6.53974
-6.58343
-6.62543
-6.66571
-6.70423
-6.741
-6.77588
-6.1035
-6.11437
-6.1393
-6.17522
-6.21707
-6.26177
-6.30798
-6.35489
-6.40168
-6.44769
-6.49253
-6.53599
-6.57793
-6.61826
-6.65691
-6.69385
-6.72905
-6.76244
-6.12584
-6.13549
-6.15774
-6.19019
-6.22862
-6.27024
-6.31368
-6.35802
-6.40247
-6.44638
-6.4893
-6.53096
-6.57119
-6.60988
-6.64694
-6.68234
-6.71606
-6.74807
-6.13248
-6.14164
-6.16285
-6.19399
-6.23108
-6.27135
-6.3134
-6.35634
-6.3994
-6.44193
-6.48347
-6.52376
-6.56263
-6.59997
-6.63571
-6.66983
-6.70231
-6.73319
-6.11624
-6.12602
-6.14861
-6.18169
-6.22069
-6.26239
-6.30534
-6.34886
-6.39222
-6.43479
-6.47614
-6.51606
-6.55443
-6.59118
-6.62626
-6.65968
-6.69145
-6.72163
-6.08932
-6.10012
-6.12539
-6.16241
-6.20518
-6.24969
-6.29478
-6.34001
-6.38464
-6.42799
-6.46976
-6.50986
-6.54825
-6.58486
-6.61972
-6.65285
-6.68429
-6.71413
-6.05405
-6.06587
-6.09523
-6.13881
-6.18709
-6.23508
-6.28289
-6.33061
-6.37716
-6.42175
-6.46427
-6.50483
-6.54345
-6.58014
-6.61493
-6.64792
-6.67918
-6.7088
-6.01347
-6.02537
-6.05983
-6.1131
-6.16865
-6.22061
-6.27149
-6.32194
-6.37045
-6.41633
-6.45975
-6.50094
-6.53994
-6.5768
-6.61165
-6.64461
-6.67578
-6.70531
-5.96974
-5.98072
-6.0225
-6.08692
-6.14911
-6.20579
-6.26141
-6.31527
-6.36553
-6.41235
-6.45647
-6.49816
-6.53742
-6.57438
-6.60923
-6.64213
-6.67322
-6.70262
-5.9228
-5.92831
-5.99097
-6.06918
-6.13113
-6.18938
-6.25053
-6.30888
-6.36141
-6.40946
-6.45448
-6.49675
-6.53629
-6.57333
-6.60815
-6.64097
-6.67197
-6.70133
-5.87948
-5.84316
-5.9527
-6.06368
-6.12593
-6.18122
-6.24343
-6.30317
-6.35639
-6.40512
-6.45084
-6.49364
-6.53351
-6.57074
-6.60566
-6.63854
-6.66957
-6.69893
-5.8937
-5.73476
-5.86368
-6.01776
-6.10787
-6.17924
-6.24817
-6.30908
-6.36188
-6.41017
-6.45545
-6.49771
-6.537
-6.57367
-6.60805
-6.64043
-6.67104
-6.70011
-6.01689
-5.83652
-5.85069
-5.92283
-6.0112
-6.11042
-6.20112
-6.2749
-6.3366
-6.39174
-6.44205
-6.48783
-6.52963
-6.56813
-6.60382
-6.63716
-6.6686
-6.69875
-5.72427
-6.31536
-6.4042
-6.27995
-6.22562
-6.25278
-6.29976
-6.34301
-6.38457
-6.42675
-6.46825
-6.50758
-6.54454
-6.57927
-6.61184
-6.64239
-6.67114
-6.69987
-2.73494
-4.49825
-5.50295
-5.80209
-5.95127
-6.0949
-6.20894
-6.2899
-6.35413
-6.411
-6.46226
-6.5083
-6.54998
-6.58821
-6.62351
-6.65566
-6.68451
-6.7083
-7.60709
-7.60714
-7.60765
-7.60877
-7.61034
-7.61233
-7.61471
-7.61748
-7.62065
-7.62423
-7.62828
-7.63282
-7.6379
-7.64357
-7.64987
-7.65686
-7.6646
-7.67318
-7.68262
-7.69299
-7.70438
-7.71656
-7.72927
-7.74252
-7.75584
-7.76859
-7.78138
-7.79697
-7.81645
-7.83782
-7.85992
-7.88251
-7.90533
-7.92962
-7.95392
-7.97573
-7.99577
-8.01761
-8.04212
-8.06752
-8.09377
-8.12068
-8.14809
-8.17591
-8.20401
-8.23233
-8.26075
-8.28923
-8.31764
-8.34594
-8.37402
-8.40183
-8.42923
-8.45617
-8.48252
-8.50821
-8.53308
-8.55707
-8.58001
-8.60181
-8.6223
-8.64136
-8.65881
-8.67454
-8.68833
-8.70007
-8.70953
-8.71657
-8.72096
-8.72254
-8.72108
-8.7164
-8.70826
-8.69649
-8.68082
-8.66108
-8.63701
-8.60841
-8.57502
-8.53665
-8.49304
-8.444
-8.38927
-8.32867
-8.26195
-8.18893
-8.10937
-8.0231
-7.92996
-7.82987
-7.72284
-7.60888
-7.48779
-7.35905
-7.22227
-7.07749
-6.9248
-6.76427
-6.59589
-6.41971
-6.23576
-6.0441
-5.84484
-5.63808
-5.42399
-5.20275
-4.97458
-4.73972
-4.49845
-4.25107
-3.9979
-3.73931
-3.47568
-3.20741
-2.93493
-2.65868
-2.37915
-2.0968
-1.81211
-1.52553
-1.23755
-0.948674
-0.659409
-0.370259
-0.0817017
0.205827
0.491894
0.776075
1.05797
1.33721
1.61344
1.88632
2.15559
2.42098
2.68227
2.93927
3.19188
3.43998
3.68355
3.92255
4.15693
4.38675
4.61208
4.83307
5.04989
5.26273
5.47181
5.6774
5.87976
6.07923
6.27612
6.4708
6.66364
6.85506
7.04545
7.23527
7.42495
7.61496
7.80574
7.99777
8.19149
8.38736
8.5858
8.7872
8.99196
9.20053
9.4131
9.62939
9.84914
10.0724
10.2993
10.5296
10.7629
10.9986
11.2361
11.4748
11.7148
11.9555
12.2095
12.466
-7.60483
-7.60537
-7.60618
-7.60707
-7.60789
-7.60878
-7.60997
-7.61159
-7.61372
-7.61637
-7.61958
-7.62334
-7.62766
-7.63257
-7.63809
-7.64425
-7.65107
-7.65853
-7.66662
-7.67539
-7.68467
-7.69434
-7.70478
-7.71608
-7.72814
-7.7415
-7.75767
-7.77546
-7.79182
-7.80721
-7.82308
-7.83998
-7.85944
-7.88093
-7.90416
-7.93062
-7.96047
-7.99021
-8.01744
-8.0443
-8.07125
-8.09847
-8.12596
-8.15371
-8.18166
-8.20977
-8.23797
-8.26619
-8.29437
-8.32242
-8.35028
-8.37787
-8.40508
-8.43185
-8.45806
-8.48362
-8.50842
-8.53235
-8.55528
-8.5771
-8.59765
-8.61681
-8.63442
-8.65033
-8.66438
-8.6764
-8.68621
-8.69363
-8.69847
-8.70055
-8.69965
-8.69559
-8.68813
-8.67709
-8.66223
-8.64336
-8.62022
-8.59262
-8.5603
-8.52308
-8.48069
-8.43295
-8.37962
-8.32049
-8.25535
-8.184
-8.10623
-8.02184
-7.93066
-7.83253
-7.72729
-7.61471
-7.49454
-7.36676
-7.23147
-7.08859
-6.93798
-6.7796
-6.61342
-6.43945
-6.25772
-6.06829
-5.87125
-5.66671
-5.45481
-5.23574
-5.00969
-4.77691
-4.53765
-4.29222
-4.04093
-3.78413
-3.52219
-3.25551
-2.98451
-2.70963
-2.43134
-2.15011
-1.86639
-1.58066
-1.2934
-1.00512
-0.716304
-0.427457
-0.139069
0.148426
0.43459
0.719004
1.00126
1.28098
1.55781
1.83141
2.10149
2.36779
2.63008
2.88816
3.1419
3.39121
3.63602
3.87628
4.11194
4.34304
4.56965
4.79191
5.00995
5.22398
5.43419
5.64085
5.84422
6.04461
6.24233
6.43776
6.63123
6.82318
7.01398
7.20409
7.39392
7.58395
7.77462
7.96641
8.15973
8.35508
8.5529
8.75358
8.95743
9.16487
9.37604
9.59073
9.80884
10.0305
10.2558
10.4845
10.7162
10.9506
11.1871
11.4252
11.6655
11.9072
12.1644
12.4134
-7.59878
-7.60043
-7.60275
-7.60453
-7.60561
-7.60643
-7.60737
-7.60865
-7.61039
-7.61265
-7.61547
-7.61885
-7.62283
-7.6274
-7.6326
-7.63845
-7.64496
-7.65215
-7.65998
-7.66846
-7.67753
-7.68713
-7.69737
-7.70844
-7.72063
-7.73446
-7.75036
-7.76786
-7.78569
-7.80357
-7.82179
-7.8405
-7.85987
-7.87985
-7.90068
-7.92341
-7.94825
-7.97418
-8.00016
-8.02636
-8.05284
-8.0796
-8.10662
-8.13386
-8.16128
-8.18885
-8.21649
-8.24417
-8.27181
-8.29935
-8.3267
-8.35381
-8.38058
-8.40693
-8.43276
-8.45798
-8.48247
-8.50613
-8.52883
-8.55046
-8.57088
-8.58996
-8.60753
-8.62346
-8.63758
-8.64972
-8.65972
-8.6674
-8.67255
-8.67501
-8.67456
-8.67101
-8.66415
-8.65378
-8.63966
-8.6216
-8.59937
-8.57275
-8.5415
-8.50542
-8.46428
-8.41785
-8.36593
-8.30829
-8.24473
-8.17505
-8.09904
-8.01651
-7.92729
-7.83121
-7.72811
-7.61773
-7.49987
-7.37443
-7.24147
-7.10095
-6.95277
-6.79688
-6.63324
-6.46185
-6.28273
-6.09592
-5.9015
-5.69958
-5.49029
-5.27381
-5.05033
-4.82007
-4.58328
-4.34025
-4.09128
-3.83673
-3.57694
-3.31232
-3.04326
-2.77021
-2.49362
-2.21394
-1.93164
-1.64719
-1.36107
-1.07379
-0.785832
-0.497676
-0.20981
0.0773047
0.363232
0.64756
0.929879
1.20981
1.48698
1.76107
2.03176
2.29879
2.5619
2.8209
3.07565
3.32603
3.57197
3.8134
4.05027
4.28258
4.51042
4.73388
4.95312
5.16828
5.37958
5.58725
5.79155
5.99276
6.19121
6.38721
6.58116
6.7734
6.96437
7.15446
7.34412
7.53377
7.72388
7.91493
8.10734
8.30154
8.49805
8.69729
8.8996
9.10531
9.3146
9.5274
9.74369
9.96359
10.1871
10.4141
10.6443
10.8774
11.113
11.3507
11.5918
11.8343
12.0942
12.3293
-7.58964
-7.59254
-7.59696
-7.60036
-7.60248
-7.60398
-7.60531
-7.60675
-7.60847
-7.6106
-7.61322
-7.61638
-7.6201
-7.62441
-7.62931
-7.63485
-7.64103
-7.64788
-7.6554
-7.6636
-7.67248
-7.68205
-7.69235
-7.70348
-7.71559
-7.72895
-7.74375
-7.75991
-7.77711
-7.79519
-7.81413
-7.83388
-7.85433
-7.87533
-7.89687
-7.91928
-7.94268
-7.96693
-7.99176
-8.01709
-8.04284
-8.06897
-8.09541
-8.12211
-8.14902
-8.17609
-8.20325
-8.23048
-8.25768
-8.28481
-8.31178
-8.33854
-8.36498
-8.39104
-8.41661
-8.44161
-8.46592
-8.48943
-8.51204
-8.53361
-8.55401
-8.5731
-8.59075
-8.60679
-8.62108
-8.63344
-8.6437
-8.65168
-8.6572
-8.66008
-8.6601
-8.65708
-8.6508
-8.64106
-8.62765
-8.61034
-8.58892
-8.56317
-8.53286
-8.49777
-8.45768
-8.41237
-8.36161
-8.3052
-8.24291
-8.17456
-8.09993
-8.01882
-7.93106
-7.83647
-7.73489
-7.62612
-7.50997
-7.38635
-7.25523
-7.11656
-6.97026
-6.81627
-6.65455
-6.48511
-6.30794
-6.1231
-5.93064
-5.73068
-5.52335
-5.30879
-5.08721
-4.8588
-4.62383
-4.38257
-4.13531
-3.88239
-3.62417
-3.36103
-3.09338
-2.82163
-2.54625
-2.26768
-1.98637
-1.70281
-1.41747
-1.13087
-0.843488
-0.555795
-0.268249
0.0186574
0.304486
0.588829
0.87128
1.15145
1.42898
1.70352
1.97476
2.24243
2.50628
2.7661
3.02173
3.27306
3.51999
3.76243
4.00035
4.23374
4.46268
4.68724
4.90756
5.12378
5.33612
5.54476
5.74998
5.95204
6.15126
6.34794
6.54246
6.73515
6.92644
7.1167
7.3064
7.49592
7.68571
7.87624
8.06798
8.26134
8.45677
8.65466
8.85535
9.05918
9.26636
9.477
9.69116
9.90895
10.1304
10.3553
10.5835
10.8148
11.0489
11.2854
11.5256
11.7669
12.0243
12.2449
-7.57979
-7.58398
-7.59067
-7.5959
-7.59934
-7.60183
-7.6039
-7.60585
-7.60791
-7.61026
-7.613
-7.61623
-7.61998
-7.6243
-7.62922
-7.63476
-7.64095
-7.6478
-7.65535
-7.66361
-7.6726
-7.68237
-7.69297
-7.70446
-7.71692
-7.73044
-7.74509
-7.76085
-7.77761
-7.79534
-7.814
-7.83357
-7.85396
-7.87508
-7.89687
-7.91934
-7.94247
-7.96622
-7.99049
-8.01525
-8.04044
-8.06604
-8.09196
-8.11819
-8.14464
-8.17128
-8.19805
-8.2249
-8.25175
-8.27855
-8.30523
-8.33171
-8.35791
-8.38376
-8.40915
-8.434
-8.4582
-8.48163
-8.50419
-8.52575
-8.54617
-8.56533
-8.58308
-8.59926
-8.61372
-8.62629
-8.6368
-8.64508
-8.65093
-8.65418
-8.65462
-8.65205
-8.64627
-8.63707
-8.62423
-8.60755
-8.58679
-8.56174
-8.53218
-8.49788
-8.45861
-8.41417
-8.36431
-8.30884
-8.24754
-8.18019
-8.1066
-8.02657
-7.93989
-7.84642
-7.74598
-7.6384
-7.5235
-7.4012
-7.2714
-7.13404
-6.98904
-6.83636
-6.67595
-6.5078
-6.33193
-6.14836
-5.95718
-5.75847
-5.55236
-5.339
-5.11858
-4.89131
-4.65742
-4.41719
-4.17093
-3.91894
-3.6616
-3.39927
-3.13236
-2.8613
-2.58653
-2.3085
-2.02767
-1.7445
-1.4595
-1.17316
-0.885987
-0.598441
-0.310964
-0.0240483
0.261858
0.54634
0.829002
1.10944
1.3873
1.66222
1.9339
2.20204
2.46641
2.72679
2.98302
3.23497
3.48251
3.72559
3.96413
4.19817
4.42774
4.65294
4.87386
5.09068
5.30356
5.51273
5.71842
5.92092
6.12048
6.31747
6.51221
6.70508
6.89641
7.08665
7.27617
7.46545
7.65486
7.8449
8.03595
8.22848
8.42289
8.61959
8.8189
9.02117
9.22663
9.43546
9.64781
9.86379
10.0834
10.3066
10.5332
10.7629
10.9955
11.2307
11.4692
11.7081
11.9609
12.1682
-7.5712
-7.57659
-7.58524
-7.59217
-7.59693
-7.6005
-7.60345
-7.6061
-7.60872
-7.61151
-7.61461
-7.61812
-7.62212
-7.62667
-7.63181
-7.63758
-7.644
-7.65111
-7.65892
-7.66747
-7.67678
-7.68689
-7.69785
-7.70972
-7.72253
-7.73634
-7.75116
-7.76697
-7.78372
-7.80135
-7.81983
-7.83914
-7.85922
-7.88004
-7.90155
-7.92373
-7.94652
-7.96987
-7.99374
-8.01808
-8.04285
-8.06802
-8.09355
-8.11938
-8.14546
-8.17176
-8.19821
-8.22476
-8.25134
-8.2779
-8.30436
-8.33066
-8.3567
-8.38242
-8.40771
-8.43249
-8.45665
-8.48008
-8.50266
-8.52427
-8.54478
-8.56406
-8.58195
-8.59831
-8.61298
-8.62579
-8.63657
-8.64515
-8.65134
-8.65494
-8.65577
-8.65362
-8.64829
-8.63957
-8.62724
-8.61109
-8.59089
-8.56643
-8.53749
-8.50383
-8.46523
-8.42148
-8.37235
-8.31761
-8.25707
-8.1905
-8.11771
-8.03848
-7.95264
-7.86
-7.76041
-7.65369
-7.5397
-7.4183
-7.28941
-7.15295
-7.00884
-6.85703
-6.69747
-6.53016
-6.3551
-6.17232
-5.98191
-5.78394
-5.57854
-5.36586
-5.14607
-4.91939
-4.68606
-4.44635
-4.20054
-3.94897
-3.69199
-3.42998
-3.16334
-2.8925
-2.6179
-2.33998
-2.05922
-1.77608
-1.49107
-1.20468
-0.917432
-0.629783
-0.342177
-0.055084
0.231033
0.515761
0.79869
1.07943
1.3576
1.63285
1.90487
2.17336
2.43808
2.69882
2.9554
3.20768
3.45554
3.6989
3.9377
4.17198
4.40176
4.62715
4.84822
5.06514
5.27807
5.48725
5.69291
5.89531
6.09474
6.29152
6.48597
6.67848
6.8694
7.05915
7.24812
7.43674
7.62542
7.81463
8.00477
8.1963
8.38962
8.58514
8.78319
8.9841
9.18813
9.3955
9.6064
9.82096
10.0392
10.2611
10.4865
10.715
10.9465
11.1805
11.4175
11.6537
11.9019
12.0978
-7.56525
-7.57163
-7.58177
-7.59007
-7.59601
-7.6006
-7.60443
-7.60783
-7.61109
-7.61442
-7.61799
-7.62193
-7.62631
-7.63122
-7.63671
-7.64281
-7.64958
-7.65703
-7.6652
-7.67412
-7.6838
-7.69429
-7.70561
-7.71781
-7.7309
-7.74491
-7.75985
-7.77571
-7.79245
-7.81003
-7.82841
-7.84756
-7.86744
-7.88802
-7.90926
-7.93115
-7.95362
-7.97665
-8.00019
-8.02421
-8.04866
-8.07351
-8.09873
-8.12427
-8.15008
-8.17613
-8.20235
-8.2287
-8.2551
-8.28151
-8.30785
-8.33405
-8.36003
-8.38571
-8.41099
-8.43578
-8.45998
-8.48348
-8.50616
-8.52789
-8.54855
-8.56799
-8.58608
-8.60266
-8.61757
-8.63065
-8.64172
-8.6506
-8.65712
-8.66107
-8.66227
-8.66051
-8.65558
-8.64729
-8.6354
-8.61971
-8.59999
-8.57602
-8.54757
-8.51443
-8.47637
-8.43316
-8.38458
-8.33041
-8.27044
-8.20445
-8.13224
-8.05361
-7.96835
-7.87631
-7.77732
-7.6712
-7.5578
-7.437
-7.30871
-7.17281
-7.02925
-6.87796
-6.71891
-6.55206
-6.37745
-6.19509
-6.00507
-5.80745
-5.60237
-5.38997
-5.17043
-4.94396
-4.71079
-4.47119
-4.22547
-3.97394
-3.71695
-3.4549
-3.18818
-2.91722
-2.64246
-2.36436
-2.08337
-1.79999
-1.51473
-1.22808
-0.940546
-0.652615
-0.364733
-0.0773477
0.209077
0.494123
0.777368
1.05843
1.3369
1.61246
1.88476
2.15353
2.41849
2.67946
2.93624
3.18867
3.43665
3.68007
3.91892
4.15317
4.3829
4.60816
4.82909
5.04578
5.25846
5.46729
5.67256
5.87448
6.07339
6.26955
6.46336
6.65511
6.84524
7.03409
7.22212
7.40972
7.59734
7.78541
7.97438
8.16467
8.35673
8.55094
8.74766
8.94722
9.14991
9.35596
9.56559
9.77896
9.9961
10.217
10.4413
10.669
10.8996
11.1326
11.3681
11.6018
11.8461
12.0326
-7.56271
-7.56977
-7.58087
-7.59016
-7.59703
-7.60248
-7.6071
-7.61122
-7.61511
-7.61901
-7.62309
-7.62749
-7.63231
-7.63763
-7.6435
-7.64999
-7.65712
-7.66494
-7.67348
-7.68275
-7.69279
-7.70362
-7.71525
-7.72772
-7.74104
-7.75521
-7.77024
-7.78612
-7.80282
-7.82033
-7.8386
-7.85761
-7.87733
-7.89773
-7.91877
-7.94043
-7.96267
-7.98546
-8.00876
-8.03254
-8.05677
-8.08141
-8.10642
-8.13177
-8.15742
-8.18331
-8.20941
-8.23565
-8.26197
-8.28833
-8.31464
-8.34084
-8.36684
-8.39256
-8.41791
-8.4428
-8.46712
-8.49075
-8.51359
-8.5355
-8.55635
-8.57602
-8.59434
-8.61117
-8.62635
-8.6397
-8.65107
-8.66026
-8.6671
-8.67138
-8.67292
-8.67151
-8.66695
-8.65902
-8.64751
-8.6322
-8.61287
-8.58929
-8.56125
-8.52851
-8.49085
-8.44805
-8.39988
-8.34611
-8.28655
-8.22096
-8.14915
-8.07091
-7.98605
-7.89439
-7.79576
-7.69001
-7.57696
-7.45651
-7.32853
-7.19294
-7.04964
-6.89859
-6.73975
-6.57309
-6.39862
-6.21638
-6.02644
-5.82887
-5.6238
-5.41138
-5.19178
-4.9652
-4.73189
-4.49212
-4.24617
-3.99439
-3.73713
-3.47476
-3.2077
-2.93637
-2.66122
-2.3827
-2.1013
-1.8175
-1.53182
-1.24475
-0.956804
-0.668475
-0.380226
-0.0924892
0.194291
0.479677
0.763256
1.04462
1.32339
1.59919
1.87172
2.14067
2.4058
2.66688
2.92372
3.17617
3.42411
3.66745
3.90617
4.14025
4.36974
4.59471
4.81527
5.03155
5.24374
5.45202
5.65666
5.8579
6.05604
6.25138
6.44427
6.63506
6.82414
7.01189
7.19875
7.38513
7.57148
7.75823
7.94583
8.13474
8.32537
8.51816
8.71346
8.91162
9.11295
9.31771
9.52613
9.73838
9.9545
10.1744
10.398
10.6249
10.8548
11.0868
11.3209
11.5523
11.7932
11.9722
-7.56381
-7.57123
-7.58279
-7.59266
-7.60018
-7.60628
-7.61153
-7.61625
-7.6207
-7.62511
-7.62967
-7.63452
-7.63975
-7.64546
-7.6517
-7.65854
-7.66602
-7.67417
-7.68302
-7.69259
-7.70292
-7.71401
-7.72588
-7.73856
-7.75204
-7.76633
-7.78142
-7.79732
-7.81399
-7.83144
-7.84961
-7.86851
-7.8881
-7.90835
-7.92924
-7.95074
-7.97282
-7.99545
-8.01859
-8.04223
-8.06632
-8.09084
-8.11574
-8.14101
-8.16658
-8.19243
-8.21849
-8.24472
-8.27106
-8.29745
-8.32382
-8.35009
-8.3762
-8.40204
-8.42753
-8.45258
-8.47707
-8.5009
-8.52395
-8.54608
-8.56718
-8.58709
-8.60567
-8.62276
-8.63822
-8.65186
-8.66351
-8.673
-8.68013
-8.68471
-8.68656
-8.68545
-8.68119
-8.67357
-8.66236
-8.64736
-8.62833
-8.60505
-8.5773
-8.54485
-8.50747
-8.46495
-8.41704
-8.36355
-8.30423
-8.23889
-8.16732
-8.0893
-8.00464
-7.91317
-7.81472
-7.70913
-7.59623
-7.4759
-7.34801
-7.21249
-7.06924
-6.9182
-6.75933
-6.59261
-6.41805
-6.23569
-6.04558
-5.84781
-5.64251
-5.42982
-5.20991
-4.98299
-4.74931
-4.50912
-4.26274
-4.01048
-3.75272
-3.48984
-3.22225
-2.95036
-2.67465
-2.39556
-2.1136
-1.82926
-1.54306
-1.25548
-0.967052
-0.678269
-0.389615
-0.101508
0.185621
0.471329
0.75521
1.03683
1.31582
1.59179
1.86444
2.13348
2.39865
2.65973
2.91651
3.16884
3.41658
3.65969
3.8981
4.13183
4.3609
4.58539
4.8054
5.02108
5.23257
5.44012
5.64394
5.84431
6.0415
6.23585
6.42766
6.61734
6.80523
6.99176
7.17732
7.36238
7.54734
7.73269
7.91886
8.10631
8.29548
8.48681
8.68068
8.87745
9.07746
9.28099
9.48828
9.6995
9.91472
10.1339
10.3567
10.583
10.8122
11.0433
11.2761
11.5054
11.7435
11.9167
-7.5684
-7.57588
-7.58744
-7.5975
-7.60537
-7.61189
-7.61759
-7.62275
-7.62764
-7.63247
-7.63742
-7.64263
-7.6482
-7.65424
-7.66079
-7.66792
-7.67566
-7.68407
-7.69316
-7.70296
-7.71349
-7.72477
-7.73681
-7.74962
-7.7632
-7.77756
-7.79269
-7.80859
-7.82524
-7.84263
-7.86074
-7.87955
-7.89905
-7.9192
-7.93999
-7.9614
-7.98339
-8.00593
-8.029
-8.05258
-8.07662
-8.1011
-8.12599
-8.15126
-8.17685
-8.20273
-8.22885
-8.25516
-8.28159
-8.3081
-8.3346
-8.36102
-8.38729
-8.41332
-8.43901
-8.46427
-8.48898
-8.51304
-8.53632
-8.55871
-8.58005
-8.60022
-8.61906
-8.63642
-8.65213
-8.66603
-8.67794
-8.68769
-8.69507
-8.69991
-8.702
-8.70113
-8.69711
-8.68971
-8.67872
-8.66392
-8.64509
-8.62201
-8.59444
-8.56216
-8.52495
-8.48257
-8.43481
-8.38144
-8.32224
-8.25699
-8.1855
-8.10754
-8.02294
-7.93149
-7.83306
-7.72745
-7.61452
-7.49412
-7.36616
-7.23052
-7.08712
-6.9359
-6.77681
-6.60984
-6.435
-6.25232
-6.06186
-5.86371
-5.65798
-5.44483
-5.22443
-4.99698
-4.76274
-4.52198
-4.27499
-4.0221
-3.7637
-3.50015
-3.23189
-2.95933
-2.68293
-2.40318
-2.12058
-1.83563
-1.54884
-1.26072
-0.971782
-0.682538
-0.393477
-0.105012
0.182426
0.46841
0.752534
1.03437
1.3135
1.58956
1.86225
2.13127
2.39636
2.65729
2.91385
3.16589
3.41329
3.65599
3.89392
4.1271
4.35555
4.57936
4.79862
5.01348
5.22411
5.43073
5.63356
5.83289
6.02898
6.22218
6.4128
6.60122
6.78783
6.97302
7.15722
7.34087
7.5244
7.7083
7.893
8.07899
8.2667
8.45659
8.64906
8.84449
9.04325
9.24561
9.45186
9.66215
9.87655
10.095
10.3173
10.5429
10.7715
11.0018
11.2335
11.4609
11.6967
11.8655
-7.57606
-7.58334
-7.59451
-7.60441
-7.61234
-7.61905
-7.62498
-7.63042
-7.63559
-7.6407
-7.64592
-7.65139
-7.65721
-7.66348
-7.67024
-7.67757
-7.6855
-7.69407
-7.70332
-7.71325
-7.72391
-7.73529
-7.74741
-7.76029
-7.77392
-7.78831
-7.80345
-7.81934
-7.83597
-7.85333
-7.8714
-7.89017
-7.90961
-7.92972
-7.95047
-7.97184
-7.99381
-8.01634
-8.03941
-8.063
-8.08707
-8.1116
-8.13656
-8.1619
-8.18759
-8.21359
-8.23983
-8.26629
-8.29288
-8.31956
-8.34625
-8.37288
-8.39936
-8.42561
-8.45152
-8.47701
-8.50197
-8.52627
-8.54979
-8.57242
-8.594
-8.6144
-8.63347
-8.65106
-8.66699
-8.6811
-8.69321
-8.70315
-8.71072
-8.71573
-8.71798
-8.71726
-8.71337
-8.7061
-8.69523
-8.68053
-8.66179
-8.63879
-8.61128
-8.57906
-8.54188
-8.49953
-8.45177
-8.39839
-8.33917
-8.27389
-8.20234
-8.12431
-8.0396
-7.94805
-7.84948
-7.74372
-7.63061
-7.51001
-7.38181
-7.2459
-7.10221
-6.95065
-6.79121
-6.62385
-6.44858
-6.26544
-6.07448
-5.8758
-5.66951
-5.45577
-5.23474
-5.00666
-4.77174
-4.53028
-4.28257
-4.02896
-3.76981
-3.50552
-3.2365
-2.9632
-2.68607
-2.40562
-2.12234
-1.83677
-1.54938
-1.2607
-0.971253
-0.681563
-0.392101
-0.103302
0.184403
0.470606
0.754897
1.03685
1.31603
1.59209
1.86469
2.13355
2.39841
2.65902
2.91519
3.16675
3.41362
3.65569
3.89295
4.12537
4.35301
4.57593
4.79425
5.00809
5.21767
5.42316
5.62485
5.82295
6.01781
6.2097
6.39901
6.58606
6.77128
6.95505
7.13781
7.32
7.50208
7.6845
7.86775
8.05228
8.23858
8.42708
8.61822
8.81241
9.01001
9.21134
9.41666
9.62616
9.83988
10.0578
10.2795
10.5048
10.7328
10.9625
11.1931
11.4189
11.6529
11.8185
-7.58621
-7.59307
-7.60354
-7.61299
-7.62073
-7.62738
-7.63335
-7.63887
-7.64416
-7.6494
-7.65477
-7.66037
-7.66631
-7.67269
-7.67955
-7.68697
-7.69498
-7.70362
-7.71292
-7.72291
-7.7336
-7.74502
-7.75717
-7.77007
-7.78371
-7.7981
-7.81324
-7.82912
-7.84574
-7.86309
-7.88114
-7.8999
-7.91935
-7.93946
-7.96022
-7.9816
-8.00359
-8.02618
-8.04931
-8.07299
-8.09716
-8.12181
-8.14689
-8.17238
-8.19823
-8.22439
-8.25082
-8.27747
-8.30426
-8.33115
-8.35805
-8.3849
-8.4116
-8.43807
-8.46421
-8.48993
-8.51509
-8.53961
-8.56334
-8.58616
-8.60793
-8.62851
-8.64774
-8.66547
-8.68154
-8.69578
-8.708
-8.71803
-8.72568
-8.73075
-8.73305
-8.73237
-8.7285
-8.72124
-8.71036
-8.69564
-8.67687
-8.65381
-8.62625
-8.59395
-8.55668
-8.51423
-8.46636
-8.41285
-8.35348
-8.28804
-8.21631
-8.13809
-8.05317
-7.96139
-7.86257
-7.75653
-7.64312
-7.5222
-7.39366
-7.25738
-7.11327
-6.96129
-6.80138
-6.63352
-6.45773
-6.27403
-6.08249
-5.8832
-5.67627
-5.46185
-5.24014
-5.01133
-4.77568
-4.53347
-4.285
-4.03062
-3.77069
-3.50562
-3.23582
-2.96175
-2.68388
-2.40272
-2.11876
-1.83254
-1.54456
-1.25534
-0.965423
-0.675315
-0.385492
-0.0964189
0.191475
0.477787
0.762131
1.04407
1.32316
1.59905
1.87141
2.13993
2.40437
2.66448
2.92007
3.17097
3.4171
3.65837
3.89475
4.12623
4.35286
4.5747
4.79189
5.00455
5.21289
5.41711
5.61747
5.81423
6.00769
6.19817
6.38602
6.57162
6.75535
6.93764
7.1189
7.29959
7.48018
7.66113
7.84292
8.02603
8.21095
8.39813
8.58803
8.78106
8.9776
9.17801
9.38252
9.59134
9.80451
10.0219
10.2434
10.4683
10.6959
10.925
11.1548
11.3793
11.6118
11.7751
-7.59819
-7.60449
-7.61403
-7.62279
-7.63011
-7.6365
-7.6423
-7.64772
-7.65295
-7.65816
-7.6635
-7.66909
-7.67502
-7.68137
-7.68822
-7.69561
-7.7036
-7.71222
-7.72149
-7.73146
-7.74214
-7.75354
-7.76567
-7.77855
-7.79218
-7.80657
-7.8217
-7.83758
-7.8542
-7.87156
-7.88963
-7.90841
-7.92787
-7.94801
-7.96881
-7.99025
-8.01232
-8.03499
-8.05824
-8.08205
-8.10638
-8.13119
-8.15645
-8.18213
-8.20816
-8.23451
-8.26114
-8.28798
-8.31497
-8.34206
-8.36915
-8.39619
-8.42308
-8.44974
-8.47605
-8.50192
-8.52724
-8.55188
-8.57573
-8.59865
-8.6205
-8.64115
-8.66043
-8.67819
-8.69427
-8.7085
-8.7207
-8.73069
-8.73828
-8.74329
-8.7455
-8.74472
-8.74074
-8.73334
-8.72232
-8.70745
-8.68851
-8.66528
-8.63752
-8.60502
-8.56755
-8.52487
-8.47677
-8.42302
-8.3634
-8.2977
-8.22569
-8.14718
-8.06195
-7.96986
-7.87069
-7.76431
-7.65052
-7.52921
-7.40024
-7.26353
-7.11896
-6.9665
-6.80608
-6.63769
-6.46134
-6.27705
-6.0849
-5.88497
-5.67737
-5.46227
-5.23984
-5.0103
-4.77391
-4.53093
-4.28169
-4.02652
-3.76581
-3.49995
-3.22938
-2.95455
-2.67595
-2.3941
-2.1095
-1.82268
-1.53417
-1.2445
-0.954188
-0.663744
-0.373674
-0.0844555
0.203483
0.489751
0.77398
1.05573
1.33456
1.6101
1.88202
2.15002
2.41384
2.67324
2.92803
3.17809
3.42327
3.66354
3.89883
4.12918
4.3546
4.57519
4.79106
5.00237
5.20931
5.4121
5.61099
5.80626
5.9982
6.18717
6.37347
6.55753
6.73971
6.92046
7.10019
7.27938
7.45847
7.63796
7.81834
8.00009
8.1837
8.36965
8.55842
8.75041
8.94604
9.14565
9.34952
9.55781
9.77058
9.98771
10.2089
10.4336
10.661
10.8896
11.1188
11.3423
11.5735
11.7355
-7.6114
-7.61702
-7.62549
-7.63339
-7.6401
-7.64603
-7.65146
-7.65659
-7.66157
-7.66656
-7.67171
-7.67713
-7.6829
-7.68911
-7.69582
-7.7031
-7.71097
-7.71949
-7.72868
-7.73857
-7.74918
-7.76052
-7.77261
-7.78545
-7.79904
-7.8134
-7.82851
-7.84438
-7.861
-7.87835
-7.89644
-7.91524
-7.93475
-7.95494
-7.97581
-7.99735
-8.01953
-8.04233
-8.06573
-8.08969
-8.11418
-8.13917
-8.1646
-8.19044
-8.21663
-8.24314
-8.26992
-8.2969
-8.32403
-8.35124
-8.37846
-8.4056
-8.43258
-8.4593
-8.48567
-8.51157
-8.5369
-8.56153
-8.58535
-8.60821
-8.62999
-8.65054
-8.6697
-8.68733
-8.70326
-8.71731
-8.72932
-8.73911
-8.74648
-8.75125
-8.75322
-8.75219
-8.74795
-8.74028
-8.72898
-8.71383
-8.69461
-8.67108
-8.64304
-8.61024
-8.57246
-8.52948
-8.48107
-8.42701
-8.36706
-8.30103
-8.22869
-8.14985
-8.06429
-7.97182
-7.8723
-7.76553
-7.65135
-7.52962
-7.40022
-7.26305
-7.11802
-6.96506
-6.80413
-6.63521
-6.4583
-6.27344
-6.08068
-5.88012
-5.67187
-5.4561
-5.23298
-5.00274
-4.76562
-4.5219
-4.27192
-4.01601
-3.75456
-3.48797
-3.21669
-2.94117
-2.66193
-2.37948
-2.09434
-1.80704
-1.51812
-1.2281
-0.937517
-0.646876
-0.356717
-0.067523
0.220284
0.506329
0.790244
1.07161
1.34998
1.62496
1.89623
2.16349
2.42647
2.68495
2.93874
3.18772
3.43177
3.67082
3.90484
4.13385
4.35788
4.57704
4.79143
5.00123
5.20662
5.40784
5.60514
5.79881
5.98915
6.1765
6.3612
6.54366
6.72426
6.90344
7.08163
7.25931
7.43694
7.61501
7.79403
7.97448
8.15688
8.34171
8.52945
8.72053
8.91538
9.11434
9.31769
9.52559
9.7381
9.95507
10.1762
10.4008
10.628
10.8564
11.085
11.3077
11.5379
11.6992
-7.62528
-7.63018
-7.6375
-7.64442
-7.65036
-7.65564
-7.6605
-7.66512
-7.66965
-7.67424
-7.67903
-7.68411
-7.68959
-7.69553
-7.702
-7.70906
-7.71675
-7.7251
-7.73414
-7.74389
-7.75438
-7.76561
-7.7776
-7.79036
-7.80389
-7.81819
-7.83327
-7.84911
-7.8657
-7.88306
-7.90115
-7.91999
-7.93954
-7.95981
-7.98076
-8.00239
-8.02468
-8.04759
-8.07109
-8.09516
-8.11975
-8.14483
-8.17034
-8.19624
-8.2225
-8.24905
-8.27584
-8.30284
-8.32996
-8.35714
-8.38431
-8.41139
-8.43828
-8.46488
-8.49111
-8.51685
-8.54198
-8.5664
-8.58999
-8.61259
-8.6341
-8.65435
-8.6732
-8.69051
-8.70609
-8.7198
-8.73145
-8.74087
-8.74787
-8.75226
-8.75385
-8.75243
-8.74781
-8.73976
-8.72808
-8.71255
-8.69295
-8.66906
-8.64064
-8.60748
-8.56934
-8.52601
-8.47724
-8.42283
-8.36254
-8.29617
-8.2235
-8.1443
-8.0584
-7.96559
-7.8657
-7.75856
-7.644
-7.52189
-7.39209
-7.2545
-7.10904
-6.95563
-6.79424
-6.62483
-6.44742
-6.26203
-6.06873
-5.86761
-5.65878
-5.44242
-5.21869
-4.98782
-4.75007
-4.50572
-4.25509
-3.99855
-3.73647
-3.46927
-3.1974
-2.92135
-2.6416
-2.35871
-2.07318
-1.78557
-1.4964
-1.2062
-0.915504
-0.62487
-0.334828
-0.0458629
0.241608
0.527213
0.810589
1.09134
1.36901
1.6432
1.91359
2.17987
2.44179
2.69912
2.9517
3.19939
3.44209
3.67973
3.9123
4.13978
4.36227
4.57981
4.79259
5.00072
5.20445
5.40399
5.59962
5.7916
5.98027
6.16595
6.34902
6.52985
6.70886
6.88649
7.06317
7.23939
7.41561
7.59234
7.77009
7.94935
8.13065
8.31448
8.50133
8.69165
8.88586
9.08433
9.28732
9.495
9.70738
9.92433
10.1454
10.3701
10.5973
10.8255
11.0538
11.2759
11.5053
11.6666
-7.63995
-7.64414
-7.65032
-7.65616
-7.66116
-7.66556
-7.66961
-7.67346
-7.6773
-7.68125
-7.68545
-7.69001
-7.69501
-7.70053
-7.70663
-7.71334
-7.72072
-7.7288
-7.73759
-7.74712
-7.75741
-7.76846
-7.78029
-7.7929
-7.8063
-7.82049
-7.83546
-7.85122
-7.86774
-7.88504
-7.90308
-7.92188
-7.94141
-7.96167
-7.98262
-8.00425
-8.02651
-8.04939
-8.07284
-8.09684
-8.12135
-8.14633
-8.17172
-8.19749
-8.22359
-8.24997
-8.27656
-8.30334
-8.33022
-8.35714
-8.38402
-8.41078
-8.43732
-8.46355
-8.48938
-8.5147
-8.5394
-8.56337
-8.58647
-8.6086
-8.6296
-8.64935
-8.66768
-8.68447
-8.69953
-8.71272
-8.72385
-8.73276
-8.73924
-8.74313
-8.74422
-8.74233
-8.73722
-8.72872
-8.71659
-8.70062
-8.68061
-8.6563
-8.6275
-8.59395
-8.55545
-8.51175
-8.46266
-8.40792
-8.34733
-8.28064
-8.20766
-8.12818
-8.04197
-7.94886
-7.84866
-7.74122
-7.62635
-7.50393
-7.37381
-7.23589
-7.09009
-6.93634
-6.77458
-6.6048
-6.427
-6.24121
-6.04749
-5.84593
-5.63667
-5.41985
-5.19566
-4.96434
-4.72612
-4.4813
-4.23021
-3.97322
-3.7107
-3.44308
-3.17083
-2.89444
-2.61443
-2.33131
-2.04562
-1.75791
-1.46869
-1.17854
-0.887995
-0.597623
-0.307946
-0.0194536
0.267434
0.55234
0.834915
1.11477
1.39148
1.66463
1.93388
2.19894
2.45954
2.7155
2.96663
3.21283
3.45397
3.69002