/*--------------------------------*- C++ -*----------------------------------*\
  =========                 |
  \\      /  F ield         | OpenFOAM: The Open Source CFD Toolbox
   \\    /   O peration     | Website:  https://openfoam.org
    \\  /    A nd           | Version:  6
     \\/     M anipulation  |
\*---------------------------------------------------------------------------*/
FoamFile
{
    version     2.0;
    format      ascii;
    class       surfaceScalarField;
    location    "200";
    object      phi;
}
// * * * * * * * * * * * * * * * * * * * * * * * * * * * * * * * * * * * * * //

dimensions      [0 3 -1 0 0 0 0];

internalField   nonuniform List<scalar> 
24170
(
3.129e-06
5.94012e-08
3.04662e-06
8.23812e-08
2.97353e-06
7.30951e-08
2.90489e-06
6.86368e-08
2.84056e-06
6.43331e-08
2.78323e-06
5.73294e-08
2.7339e-06
4.93296e-08
2.69194e-06
4.19582e-08
2.65626e-06
3.56816e-08
2.6258e-06
3.04557e-08
2.59959e-06
2.62108e-08
2.57678e-06
2.28066e-08
2.55671e-06
2.00709e-08
2.53879e-06
1.79216e-08
2.52262e-06
1.61711e-08
2.5072e-06
1.54152e-08
2.49287e-06
1.4329e-08
2.00863e-08
2.47278e-06
3.45306e-06
2.3586e-08
3.45701e-06
7.84399e-08
3.45054e-06
7.95568e-08
3.43908e-06
8.00946e-08
3.4243e-06
7.91131e-08
3.40705e-06
7.45814e-08
3.38783e-06
6.85517e-08
3.3673e-06
6.24888e-08
3.34614e-06
5.68343e-08
3.32495e-06
5.16449e-08
3.30421e-06
4.6952e-08
3.28419e-06
4.28256e-08
3.26509e-06
3.91739e-08
3.24694e-06
3.60713e-08
3.22984e-06
3.32685e-08
3.2137e-06
3.15585e-08
3.19887e-06
2.91534e-08
3.14946e-08
3.18746e-06
3.66816e-06
1.79431e-08
3.6792e-06
6.73994e-08
3.68543e-06
7.33306e-08
3.68946e-06
7.60621e-08
3.69105e-06
7.75176e-08
3.69008e-06
7.55502e-08
3.68694e-06
7.16918e-08
3.6821e-06
6.73342e-08
3.67594e-06
6.29914e-08
3.66879e-06
5.87909e-08
3.66094e-06
5.48087e-08
3.65262e-06
5.1146e-08
3.64401e-06
4.77754e-08
3.63529e-06
4.47934e-08
3.62651e-06
4.20514e-08
3.61803e-06
4.00397e-08
3.60932e-06
3.78557e-08
3.76773e-08
3.60314e-06
3.92585e-06
1.74829e-08
3.93592e-06
5.73297e-08
3.94257e-06
6.66807e-08
3.94811e-06
7.05231e-08
3.95252e-06
7.31053e-08
3.95546e-06
7.26049e-08
3.95713e-06
7.00258e-08
3.95776e-06
6.67051e-08
3.95754e-06
6.32106e-08
3.95662e-06
5.97116e-08
3.95513e-06
5.62974e-08
3.95319e-06
5.30812e-08
3.9509e-06
5.00671e-08
3.94835e-06
4.73384e-08
3.94558e-06
4.48201e-08
3.94286e-06
4.2766e-08
3.93993e-06
4.07834e-08
3.95066e-08
3.9381e-06
4.2082e-06
1.64109e-08
4.21598e-06
4.95457e-08
4.22168e-06
6.09844e-08
4.22678e-06
6.542e-08
4.23153e-06
6.83597e-08
4.2355e-06
6.86369e-08
4.23866e-06
6.68619e-08
4.24113e-06
6.42337e-08
4.24301e-06
6.13257e-08
4.2444e-06
5.83257e-08
4.24537e-06
5.5331e-08
4.24599e-06
5.24526e-08
4.24634e-06
4.97194e-08
4.24648e-06
4.71954e-08
4.24646e-06
4.48495e-08
4.24642e-06
4.27993e-08
4.24634e-06
4.08624e-08
3.91449e-08
4.2467e-06
4.51071e-06
1.47886e-08
4.51688e-06
4.33734e-08
4.52213e-06
5.57373e-08
4.52694e-06
6.06053e-08
4.53165e-06
6.36498e-08
4.5359e-06
6.43915e-08
4.53957e-06
6.31925e-08
4.54272e-06
6.10779e-08
4.54544e-06
5.86098e-08
4.54777e-06
5.59881e-08
4.54978e-06
5.33202e-08
4.55153e-06
5.07093e-08
4.55305e-06
4.82011e-08
4.5544e-06
4.58425e-08
4.55562e-06
4.36255e-08
4.55683e-06
4.15933e-08
4.55804e-06
3.96491e-08
3.77416e-08
4.55944e-06
4.83433e-06
1.31789e-08
4.83963e-06
3.80768e-08
4.84475e-06
5.06144e-08
4.84945e-06
5.59041e-08
4.85408e-06
5.90198e-08
4.85839e-06
6.00777e-08
4.86226e-06
5.93248e-08
4.86572e-06
5.76184e-08
4.86883e-06
5.55014e-08
4.87163e-06
5.31847e-08
4.87417e-06
5.07839e-08
4.87648e-06
4.83952e-08
4.87861e-06
4.6073e-08
4.8806e-06
4.38535e-08
4.88249e-06
4.17382e-08
4.88434e-06
3.9734e-08
4.88621e-06
3.77809e-08
3.58e-08
4.88815e-06
5.18105e-06
1.17129e-08
5.18575e-06
3.33716e-08
5.19075e-06
4.56141e-08
5.1954e-06
5.12551e-08
5.19998e-06
5.4437e-08
5.20434e-06
5.57223e-08
5.20833e-06
5.53333e-08
5.21197e-06
5.39734e-08
5.21532e-06
5.21552e-08
5.2184e-06
5.01004e-08
5.22126e-06
4.79294e-08
5.22392e-06
4.57342e-08
5.22642e-06
4.35726e-08
5.2288e-06
4.14756e-08
5.23109e-06
3.9448e-08
5.23334e-06
3.74829e-08
5.23558e-06
3.55384e-08
3.35502e-08
5.23783e-06
5.55269e-06
1.03579e-08
5.55689e-06
2.91766e-08
5.56169e-06
4.08092e-08
5.5663e-06
4.66493e-08
5.57086e-06
4.9876e-08
5.57526e-06
5.13213e-08
5.57936e-06
5.12334e-08
5.58315e-06
5.01788e-08
5.58668e-06
4.86272e-08
5.58997e-06
4.68078e-08
5.59306e-06
4.48441e-08
5.59597e-06
4.28252e-08
5.59873e-06
4.08096e-08
5.60138e-06
3.88268e-08
5.60394e-06
3.68837e-08
5.60645e-06
3.49711e-08
5.60893e-06
3.3059e-08
3.11081e-08
5.61138e-06
5.95104e-06
9.0953e-09
5.95478e-06
2.54304e-08
5.95936e-06
3.62383e-08
5.96391e-06
4.20969e-08
5.96845e-06
4.53323e-08
5.97289e-06
4.68809e-08
5.97709e-06
4.7035e-08
5.98102e-06
4.62486e-08
5.98471e-06
4.49388e-08
5.98818e-06
4.33359e-08
5.99146e-06
4.15652e-08
5.99457e-06
3.97128e-08
5.99754e-06
3.78368e-08
6.0004e-06
3.59671e-08
6.00317e-06
3.4113e-08
6.00587e-06
3.22689e-08
6.00852e-06
3.04147e-08
2.85335e-08
6.01109e-06
6.37798e-06
7.92463e-09
6.38134e-06
2.20685e-08
6.38567e-06
3.19122e-08
6.39015e-06
3.76143e-08
6.39467e-06
4.08118e-08
6.39914e-06
4.24132e-08
6.40342e-06
4.27505e-08
6.40748e-06
4.21934e-08
6.41132e-06
4.1102e-08
6.41495e-06
3.96995e-08
6.41841e-06
3.8111e-08
6.4217e-06
3.64195e-08
6.42485e-06
3.46818e-08
6.42789e-06
3.2929e-08
6.43083e-06
3.11737e-08
6.43368e-06
2.94154e-08
6.43646e-06
2.76434e-08
2.58577e-08
6.43913e-06
5.74176e-06
6.99887e-09
5.74434e-06
1.94866e-08
5.74781e-06
2.84447e-08
5.75153e-06
3.38888e-08
5.75533e-06
3.70122e-08
5.75912e-06
3.86244e-08
5.7628e-06
3.90721e-08
5.76632e-06
3.86764e-08
5.76967e-06
3.77515e-08
5.77286e-06
3.65068e-08
5.77591e-06
3.5065e-08
5.77882e-06
3.3507e-08
5.78161e-06
3.18874e-08
5.7843e-06
3.02387e-08
5.7869e-06
2.85763e-08
5.78941e-06
2.69045e-08
5.79184e-06
2.52187e-08
2.35307e-08
5.79416e-06
6.99914e-06
6.01567e-09
7.00187e-06
1.67543e-08
7.00563e-06
2.46821e-08
7.0098e-06
2.97243e-08
7.01411e-06
3.26949e-08
7.01847e-06
3.42735e-08
7.02273e-06
3.4802e-08
7.02686e-06
3.45553e-08
7.03081e-06
3.37978e-08
7.0346e-06
3.27198e-08
7.03822e-06
3.14387e-08
7.0417e-06
3.0031e-08
7.04504e-06
2.85496e-08
7.04825e-06
2.70275e-08
7.05134e-06
2.5483e-08
7.05432e-06
2.39253e-08
7.05718e-06
2.23557e-08
2.07946e-08
7.05992e-06
8.53188e-06
4.98277e-09
8.53474e-06
1.38989e-08
8.53877e-06
2.06519e-08
8.54336e-06
2.51275e-08
8.54822e-06
2.7841e-08
8.55317e-06
2.93227e-08
8.55808e-06
2.98858e-08
8.56288e-06
2.97615e-08
8.56751e-06
2.91634e-08
8.57197e-06
2.82562e-08
8.57626e-06
2.71475e-08
8.58039e-06
2.59085e-08
8.58435e-06
2.45883e-08
8.58816e-06
2.32199e-08
8.59182e-06
2.18239e-08
8.59533e-06
2.04137e-08
8.59869e-06
1.89952e-08
1.75939e-08
8.60189e-06
1.04003e-05
3.90921e-09
1.04033e-05
1.09397e-08
1.04075e-05
1.63757e-08
1.04125e-05
2.01069e-08
1.0418e-05
2.24341e-08
1.04235e-05
2.37346e-08
1.04292e-05
2.42692e-08
1.04347e-05
2.42254e-08
1.04401e-05
2.37677e-08
1.04453e-05
2.30289e-08
1.04504e-05
2.2102e-08
1.04552e-05
2.10497e-08
1.04599e-05
1.99164e-08
1.04644e-05
1.87331e-08
1.04687e-05
1.75213e-08
1.04728e-05
1.62965e-08
1.04767e-05
1.50676e-08
1.38619e-08
1.04805e-05
1.26779e-05
2.79995e-09
1.2681e-05
7.87097e-09
1.26855e-05
1.18517e-08
1.26909e-05
1.46565e-08
1.26969e-05
1.64462e-08
1.27032e-05
1.746e-08
1.27096e-05
1.7888e-08
1.27159e-05
1.78695e-08
1.27222e-05
1.75219e-08
1.27283e-05
1.69427e-08
1.27342e-05
1.62041e-08
1.27399e-05
1.5357e-08
1.27453e-05
1.44382e-08
1.27506e-05
1.34745e-08
1.27556e-05
1.24858e-08
1.27604e-05
1.14875e-08
1.2765e-05
1.0489e-08
9.51669e-09
1.27694e-05
1.54543e-05
1.64402e-09
1.54576e-05
4.64658e-09
1.54624e-05
7.0219e-09
1.54683e-05
8.71597e-09
1.5475e-05
9.80302e-09
1.5482e-05
1.04082e-08
1.54893e-05
1.06411e-08
1.54966e-05
1.05857e-08
1.55038e-05
1.03123e-08
1.55108e-05
9.88035e-09
1.55177e-05
9.3363e-09
1.55243e-05
8.71439e-09
1.55307e-05
8.04025e-09
1.55369e-05
7.33358e-09
1.55428e-05
6.60968e-09
1.55484e-05
5.8811e-09
1.55537e-05
5.15559e-09
4.45612e-09
1.55588e-05
1.88389e-05
4.01272e-10
1.88424e-05
1.14164e-09
1.88477e-05
1.71227e-09
1.88543e-05
2.0939e-09
1.88618e-05
2.30644e-09
1.88698e-05
2.37764e-09
1.88782e-05
2.32949e-09
1.88866e-05
2.18167e-09
1.88949e-05
1.95424e-09
1.89031e-05
1.66535e-09
1.89111e-05
1.33016e-09
1.89189e-05
9.61163e-10
1.89264e-05
5.69062e-10
1.89335e-05
1.62995e-10
1.89404e-05
-2.49177e-10
1.89469e-05
-6.60305e-10
1.89532e-05
-1.0662e-09
-1.44928e-09
1.89591e-05
2.29648e-05
-1.02981e-09
2.29688e-05
-2.93303e-09
2.29751e-05
-4.49691e-09
2.29828e-05
-5.6863e-09
2.29917e-05
-6.52177e-09
2.30011e-05
-7.08965e-09
2.30109e-05
-7.47729e-09
2.30209e-05
-7.73922e-09
2.30307e-05
-7.91239e-09
2.30404e-05
-8.02787e-09
2.30499e-05
-8.10977e-09
2.3059e-05
-8.17239e-09
2.30678e-05
-8.224e-09
2.30762e-05
-8.26868e-09
2.30843e-05
-8.30878e-09
2.3092e-05
-8.34411e-09
2.30993e-05
-8.37555e-09
-8.39196e-09
2.31062e-05
1.68118e-05
-2.15348e-09
1.6815e-05
-6.10625e-09
1.68198e-05
-9.33092e-09
1.68258e-05
-1.16894e-08
1.68326e-05
-1.32408e-08
1.68397e-05
-1.42133e-08
1.6847e-05
-1.47941e-08
1.68543e-05
-1.50872e-08
1.68616e-05
-1.51714e-08
1.68687e-05
-1.5119e-08
1.68756e-05
-1.49826e-08
1.68822e-05
-1.47955e-08
1.68885e-05
-1.4578e-08
1.68946e-05
-1.43444e-08
1.69004e-05
-1.41029e-08
1.69059e-05
-1.38585e-08
1.69112e-05
-1.36141e-08
-1.33634e-08
1.69161e-05
1.46356e-05
-3.23272e-09
1.46387e-05
-9.19547e-09
1.46435e-05
-1.4049e-08
1.46492e-05
-1.74384e-08
1.46555e-05
-1.95345e-08
1.46621e-05
-2.07873e-08
1.46687e-05
-2.14668e-08
1.46754e-05
-2.1709e-08
1.46818e-05
-2.16451e-08
1.46881e-05
-2.13914e-08
1.46941e-05
-2.10238e-08
1.46999e-05
-2.05869e-08
1.47055e-05
-2.01109e-08
1.47107e-05
-1.96169e-08
1.47158e-05
-1.91182e-08
1.47205e-05
-1.86222e-08
1.4725e-05
-1.81339e-08
-1.76488e-08
1.47293e-05
1.27411e-05
-4.2433e-09
1.27443e-05
-1.23253e-08
1.27491e-05
-1.88832e-08
1.27548e-05
-2.30892e-08
1.27607e-05
-2.55212e-08
1.27669e-05
-2.6953e-08
1.27731e-05
-2.76475e-08
1.27791e-05
-2.77538e-08
1.2785e-05
-2.74793e-08
1.27906e-05
-2.69893e-08
1.27959e-05
-2.63733e-08
1.2801e-05
-2.5683e-08
1.28059e-05
-2.49554e-08
1.28105e-05
-2.42161e-08
1.28148e-05
-2.34806e-08
1.28189e-05
-2.27569e-08
1.28229e-05
-2.20501e-08
-2.13571e-08
1.28266e-05
1.10918e-05
-5.08774e-09
1.1095e-05
-1.55491e-08
1.11001e-05
-2.4012e-08
1.11058e-05
-2.87176e-08
1.11115e-05
-3.12616e-08
1.11173e-05
-3.27726e-08
1.1123e-05
-3.33822e-08
1.11286e-05
-3.32726e-08
1.11338e-05
-3.27462e-08
1.11388e-05
-3.20006e-08
1.11436e-05
-3.11273e-08
1.11481e-05
-3.01832e-08
1.11524e-05
-2.92113e-08
1.11564e-05
-2.82402e-08
1.11602e-05
-2.7285e-08
1.11638e-05
-2.6354e-08
1.11672e-05
-2.54508e-08
-2.45734e-08
1.11704e-05
9.65582e-06
-5.69538e-09
9.65925e-06
-1.89746e-08
9.6646e-06
-2.93597e-08
9.67009e-06
-3.42174e-08
9.67566e-06
-3.68234e-08
9.68122e-06
-3.83358e-08
9.68656e-06
-3.87194e-08
9.69159e-06
-3.83052e-08
9.69634e-06
-3.7496e-08
9.70082e-06
-3.64862e-08
9.70505e-06
-3.53545e-08
9.70903e-06
-3.41605e-08
9.71277e-06
-3.29518e-08
9.71628e-06
-3.17577e-08
9.71959e-06
-3.05935e-08
9.7227e-06
-2.9466e-08
9.72563e-06
-2.83776e-08
-2.73242e-08
9.72838e-06
8.40532e-06
-5.66632e-09
8.40964e-06
-2.32906e-08
8.41488e-06
-3.45964e-08
8.41991e-06
-3.92473e-08
8.42527e-06
-4.21918e-08
8.43068e-06
-4.37466e-08
8.43577e-06
-4.3808e-08
8.44048e-06
-4.30144e-08
8.44485e-06
-4.18685e-08
8.44891e-06
-4.05465e-08
8.45268e-06
-3.91182e-08
8.45616e-06
-3.76457e-08
8.45939e-06
-3.61789e-08
8.46238e-06
-3.47451e-08
8.46514e-06
-3.33597e-08
8.46771e-06
-3.20288e-08
8.47008e-06
-3.07543e-08
-2.95326e-08
8.47229e-06
7.31455e-06
-2.92875e-09
7.32119e-06
-2.99347e-08
7.32674e-06
-4.01487e-08
7.3317e-06
-4.42003e-08
7.3371e-06
-4.75913e-08
7.34242e-06
-4.90694e-08
7.3473e-06
-4.8688e-08
7.35171e-06
-4.74295e-08
7.35569e-06
-4.58488e-08
7.35925e-06
-4.41046e-08
7.36241e-06
-4.22771e-08
7.3652e-06
-4.04393e-08
7.36767e-06
-3.86435e-08
7.36984e-06
-3.6914e-08
7.37174e-06
-3.5266e-08
7.37342e-06
-3.37021e-08
7.37489e-06
-3.22228e-08
-3.08186e-08
7.37617e-06
6.36245e-06
4.68701e-09
6.37189e-06
-3.93772e-08
6.37932e-06
-4.75768e-08
6.38596e-06
-5.08425e-08
6.39225e-06
-5.38748e-08
6.39756e-06
-5.43839e-08
6.40186e-06
-5.29843e-08
6.40534e-06
-5.09119e-08
6.40814e-06
-4.86504e-08
6.41033e-06
-4.62913e-08
6.41196e-06
-4.39116e-08
6.41311e-06
-4.15884e-08
6.41384e-06
-3.93725e-08
6.41421e-06
-3.72819e-08
6.41427e-06
-3.53306e-08
6.41409e-06
-3.35145e-08
6.4137e-06
-3.18347e-08
-3.02713e-08
6.41315e-06
5.5412e-06
8.94922e-09
5.55033e-06
-4.85007e-08
5.55834e-06
-5.55958e-08
5.56605e-06
-5.85454e-08
5.57251e-06
-6.03374e-08
5.57684e-06
-5.87099e-08
5.57908e-06
-5.52272e-08
5.57964e-06
-5.14727e-08
5.57889e-06
-4.78985e-08
5.5771e-06
-4.4508e-08
5.57451e-06
-4.13198e-08
5.5713e-06
-3.83767e-08
5.56762e-06
-3.56869e-08
5.56358e-06
-3.3242e-08
5.55928e-06
-3.10392e-08
5.55483e-06
-2.90614e-08
5.55031e-06
-2.73104e-08
-2.57369e-08
5.54577e-06
4.86004e-06
-2.3487e-08
4.86539e-06
-5.3843e-08
4.86524e-06
-5.54508e-08
4.86217e-06
-5.54765e-08
4.857e-06
-5.51678e-08
4.8495e-06
-5.12103e-08
4.83981e-06
-4.55319e-08
4.82842e-06
-4.00805e-08
4.81584e-06
-3.53263e-08
4.80257e-06
-3.12308e-08
4.78897e-06
-2.7723e-08
4.77533e-06
-2.47401e-08
4.76185e-06
-2.22043e-08
4.74865e-06
-2.00445e-08
4.73583e-06
-1.82143e-08
4.72345e-06
-1.66808e-08
4.71162e-06
-1.54817e-08
-1.51365e-08
4.70102e-06
4.17919e-06
4.12535e-06
4.0699e-06
4.01442e-06
3.95925e-06
3.90804e-06
3.86251e-06
3.82243e-06
3.7871e-06
3.75587e-06
3.72815e-06
3.70341e-06
3.6812e-06
3.66116e-06
3.64295e-06
3.62626e-06
3.61078e-06
3.59565e-06
1.48137e-08
-1.48299e-08
2.84741e-08
-1.36847e-08
3.56345e-08
-7.17835e-09
3.5737e-08
-1.20433e-10
2.963e-08
6.09335e-09
1.86672e-08
1.09472e-08
4.16997e-09
1.44863e-08
-1.28396e-08
1.69953e-08
-3.16361e-08
1.87879e-08
-5.17433e-08
2.00944e-08
-7.28436e-08
2.10936e-08
-9.47624e-08
2.19071e-08
-1.17377e-07
2.26091e-08
-1.40629e-07
2.3242e-08
-1.64464e-07
2.38307e-08
-1.88864e-07
2.43901e-08
-2.13799e-07
2.49326e-08
-2.39282e-07
2.54728e-08
-2.65315e-07
2.60314e-08
-2.91955e-07
2.66302e-08
-3.19253e-07
2.72973e-08
-3.47335e-07
2.80752e-08
-3.7632e-07
2.89849e-08
-4.06382e-07
3.00583e-08
-4.377e-07
3.13178e-08
-4.69011e-07
3.13102e-08
-4.9828e-07
2.92682e-08
-5.27295e-07
2.9013e-08
-5.58931e-07
3.16326e-08
-5.93459e-07
3.45217e-08
-6.31984e-07
3.85197e-08
-6.77154e-07
4.51586e-08
-7.19961e-07
4.27982e-08
-7.58018e-07
3.80412e-08
-8.01259e-07
4.32353e-08
-8.44927e-07
4.36552e-08
-8.84979e-07
4.00481e-08
-9.24599e-07
3.96095e-08
-9.66692e-07
4.20921e-08
-1.0092e-06
4.24963e-08
-1.05193e-06
4.27378e-08
-1.09484e-06
4.2903e-08
-1.13785e-06
4.30024e-08
-1.18088e-06
4.30278e-08
-1.22387e-06
4.29956e-08
-1.26679e-06
4.29186e-08
-1.3096e-06
4.28101e-08
-1.35229e-06
4.26779e-08
-1.39481e-06
4.25274e-08
-1.43718e-06
4.23617e-08
-1.47936e-06
4.21822e-08
-1.52136e-06
4.19892e-08
-1.56314e-06
4.17823e-08
-1.60471e-06
4.15606e-08
-1.64604e-06
4.13227e-08
-1.68711e-06
4.10662e-08
-1.7279e-06
4.07896e-08
-1.7684e-06
4.04905e-08
-1.80857e-06
4.01673e-08
-1.84839e-06
3.98169e-08
-1.88783e-06
3.94379e-08
-1.92687e-06
3.90279e-08
-1.96545e-06
3.85854e-08
-2.00356e-06
3.81075e-08
-2.04115e-06
3.75931e-08
-2.07819e-06
3.70393e-08
-2.11463e-06
3.64456e-08
-2.15044e-06
3.58095e-08
-2.18556e-06
3.51308e-08
-2.21997e-06
3.44071e-08
-2.2536e-06
3.36383e-08
-2.28642e-06
3.28222e-08
-2.31837e-06
3.19587e-08
-2.34942e-06
3.1046e-08
-2.3795e-06
3.00843e-08
-2.40857e-06
2.90717e-08
-2.43657e-06
2.80092e-08
-2.46347e-06
2.68955e-08
-2.48919e-06
2.57314e-08
-2.5137e-06
2.45146e-08
-2.53694e-06
2.32456e-08
-2.55885e-06
2.19224e-08
-2.57938e-06
2.05449e-08
-2.59848e-06
1.91098e-08
-2.61608e-06
1.76162e-08
-2.63213e-06
1.60602e-08
-2.64655e-06
1.44389e-08
-2.65927e-06
1.27463e-08
-2.67022e-06
1.09755e-08
-2.67931e-06
9.11476e-09
-2.68643e-06
7.14664e-09
-2.69147e-06
5.0564e-09
-2.69431e-06
2.85056e-09
-2.69489e-06
5.96044e-10
-2.69338e-06
-1.49795e-09
-2.68997e-06
-3.39561e-09
-2.68471e-06
-5.24401e-09
-2.67762e-06
-7.08446e-09
-2.66867e-06
-8.93426e-09
-2.65786e-06
-1.07965e-08
-2.64517e-06
-1.26692e-08
-2.63061e-06
-1.45499e-08
-2.61415e-06
-1.64345e-08
-2.5958e-06
-1.83193e-08
-2.57557e-06
-2.02006e-08
-2.55346e-06
-2.2074e-08
-2.52948e-06
-2.39361e-08
-2.50365e-06
-2.57811e-08
-2.476e-06
-2.76059e-08
-2.44655e-06
-2.94033e-08
-2.41533e-06
-3.11708e-08
-2.38238e-06
-3.29e-08
-2.34774e-06
-3.4589e-08
-2.31146e-06
-3.62283e-08
-2.2736e-06
-3.7817e-08
-2.23421e-06
-3.93454e-08
-2.19336e-06
-4.0813e-08
-2.15111e-06
-4.22105e-08
-2.10755e-06
-4.35376e-08
-2.06273e-06
-4.4785e-08
-2.01674e-06
-4.59525e-08
-1.96965e-06
-4.70348e-08
-1.92155e-06
-4.80441e-08
-1.87253e-06
-4.89666e-08
-1.8227e-06
-4.97985e-08
-1.77214e-06
-5.05371e-08
-1.72096e-06
-5.11978e-08
-1.66922e-06
-5.17638e-08
-1.61703e-06
-5.2239e-08
-1.56449e-06
-5.26127e-08
-1.5117e-06
-5.28919e-08
-1.45875e-06
-5.30677e-08
-1.40575e-06
-5.31464e-08
-1.35278e-06
-5.31228e-08
-1.29995e-06
-5.30022e-08
-1.24735e-06
-5.27843e-08
-1.19505e-06
-5.24702e-08
-1.14315e-06
-5.20606e-08
-1.09172e-06
-5.15535e-08
-1.04085e-06
-5.09624e-08
-9.90602e-07
-5.02984e-08
-9.41046e-07
-4.95808e-08
-8.9223e-07
-4.88155e-08
-8.44191e-07
-4.80115e-08
-7.9697e-07
-4.71683e-08
-7.50592e-07
-4.62991e-08
-7.0508e-07
-4.54067e-08
-6.60441e-07
-4.45066e-08
-6.16681e-07
-4.36002e-08
-5.73785e-07
-4.27046e-08
-5.31741e-07
-4.18234e-08
-4.90512e-07
-4.09756e-08
-4.50065e-07
-4.01627e-08
-4.10343e-07
-3.9404e-08
-3.71291e-07
-3.87057e-08
-3.32827e-07
-3.80859e-08
-2.94881e-07
-3.75438e-08
-2.57347e-07
-3.7104e-08
-2.2013e-07
-3.67695e-08
-1.83111e-07
-3.65461e-08
-1.46178e-07
-3.64481e-08
-1.09149e-07
-3.65243e-08
-7.19281e-08
-3.67117e-08
-3.4466e-08
-3.69392e-08
3.16861e-09
-3.71147e-08
4.07702e-08
-3.70754e-08
7.83207e-08
-3.70443e-08
1.16305e-07
-3.74865e-08
1.55256e-07
-3.848e-08
1.9563e-07
-3.99128e-08
2.37772e-07
-4.17114e-08
2.81964e-07
-4.37738e-08
3.28359e-07
-4.60108e-08
3.7706e-07
-4.83324e-08
4.27976e-07
-5.05862e-08
4.80726e-07
-5.2441e-08
5.34276e-07
-5.32852e-08
5.85892e-07
-5.13748e-08
6.29502e-07
-4.34037e-08
2.07084e-09
6.27625e-07
7.96469e-09
-2.28087e-08
8.00854e-09
-1.37453e-08
3.26139e-09
-2.44146e-09
-4.73259e-09
7.86438e-09
-1.55273e-08
1.68811e-08
-2.90552e-08
2.44674e-08
-4.51914e-08
3.06168e-08
-6.36777e-08
3.54744e-08
-8.41716e-08
3.92767e-08
-1.06364e-07
4.228e-08
-1.2999e-07
4.47147e-08
-1.54854e-07
4.67651e-08
-1.80817e-07
4.85682e-08
-2.07803e-07
5.02218e-08
-2.35771e-07
5.17954e-08
-2.64727e-07
5.33398e-08
-2.94692e-07
5.48947e-08
-3.2572e-07
5.6495e-08
-3.57861e-07
5.81703e-08
-3.91184e-07
5.99485e-08
-4.2575e-07
6.18615e-08
-4.61613e-07
6.39344e-08
-4.98774e-07
6.61445e-08
-5.37108e-07
6.83911e-08
-5.76293e-07
7.05025e-08
-6.17038e-07
7.20545e-08
-6.60795e-07
7.30251e-08
-7.06272e-07
7.44881e-08
-7.51478e-07
7.68361e-08
-7.96615e-07
7.96551e-08
-8.40756e-07
8.2656e-08
-8.80758e-07
8.51533e-08
-9.23275e-07
8.53099e-08
-9.69717e-07
8.4476e-08
-1.01167e-06
8.51791e-08
-1.0529e-06
8.48826e-08
-1.09658e-06
8.37266e-08
-1.14026e-06
8.32852e-08
-1.18174e-06
8.35713e-08
-1.22279e-06
8.35427e-08
-1.26341e-06
8.33513e-08
-1.3036e-06
8.30944e-08
-1.3434e-06
8.27976e-08
-1.38284e-06
8.24676e-08
-1.42195e-06
8.21066e-08
-1.46075e-06
8.1718e-08
-1.49925e-06
8.13053e-08
-1.53744e-06
8.08713e-08
-1.57533e-06
8.04172e-08
-1.61292e-06
7.99433e-08
-1.65018e-06
7.94481e-08
-1.68713e-06
7.893e-08
-1.72373e-06
7.83861e-08
-1.75999e-06
7.78134e-08
-1.79588e-06
7.7208e-08
-1.83138e-06
7.65663e-08
-1.86648e-06
7.58842e-08
-1.90115e-06
7.51579e-08
-1.93537e-06
7.43833e-08
-1.96911e-06
7.35565e-08
-2.00235e-06
7.26738e-08
-2.03505e-06
7.17318e-08
-2.06719e-06
7.07268e-08
-2.09874e-06
6.96555e-08
-2.12966e-06
6.85146e-08
-2.15993e-06
6.73014e-08
-2.18949e-06
6.6013e-08
-2.21833e-06
6.46472e-08
-2.2464e-06
6.32017e-08
-2.27366e-06
6.16745e-08
-2.30008e-06
6.00637e-08
-2.32563e-06
5.83674e-08
-2.35025e-06
5.65842e-08
-2.37391e-06
5.47125e-08
-2.39658e-06
5.27513e-08
-2.4182e-06
5.06995e-08
-2.43875e-06
4.85568e-08
-2.45817e-06
4.63225e-08
-2.47643e-06
4.39962e-08
-2.49349e-06
4.15766e-08
-2.5093e-06
3.90636e-08
-2.52383e-06
3.64562e-08
-2.53703e-06
3.37539e-08
-2.54887e-06
3.09555e-08
-2.5593e-06
2.80607e-08
-2.5683e-06
2.50685e-08
-2.57583e-06
2.19787e-08
-2.58186e-06
1.87907e-08
-2.58637e-06
1.55053e-08
-2.58937e-06
1.21242e-08
-2.59086e-06
8.65679e-09
-2.59092e-06
5.12798e-09
-2.58964e-06
1.57953e-09
-2.58709e-06
-1.94904e-09
-2.58311e-06
-5.47247e-09
-2.57747e-06
-9.02732e-09
-2.57009e-06
-1.26164e-08
-2.56093e-06
-1.62372e-08
-2.54997e-06
-1.98892e-08
-2.53719e-06
-2.35689e-08
-2.52257e-06
-2.72704e-08
-2.50613e-06
-3.0987e-08
-2.48783e-06
-3.47108e-08
-2.4677e-06
-3.84342e-08
-2.44573e-06
-4.2149e-08
-2.42193e-06
-4.58472e-08
-2.39632e-06
-4.95197e-08
-2.36892e-06
-5.31576e-08
-2.33974e-06
-5.67509e-08
-2.30882e-06
-6.02897e-08
-2.2762e-06
-6.37637e-08
-2.2419e-06
-6.7162e-08
-2.20599e-06
-7.04744e-08
-2.1685e-06
-7.36897e-08
-2.12949e-06
-7.67978e-08
-2.08902e-06
-7.97876e-08
-2.04716e-06
-8.265e-08
-2.00397e-06
-8.53752e-08
-1.95954e-06
-8.79543e-08
-1.91393e-06
-9.03766e-08
-1.86722e-06
-9.26349e-08
-1.8195e-06
-9.47246e-08
-1.77085e-06
-9.66557e-08
-1.72137e-06
-9.84192e-08
-1.67114e-06
-9.9998e-08
-1.62028e-06
-1.01393e-07
-1.56886e-06
-1.02618e-07
-1.51698e-06
-1.03661e-07
-1.46473e-06
-1.04516e-07
-1.41221e-06
-1.05176e-07
-1.35951e-06
-1.05644e-07
-1.30673e-06
-1.05912e-07
-1.25397e-06
-1.05987e-07
-1.20131e-06
-1.05864e-07
-1.14886e-06
-1.05552e-07
-1.09668e-06
-1.05053e-07
-1.04487e-06
-1.04373e-07
-9.93498e-07
-1.03513e-07
-9.42633e-07
-1.02482e-07
-8.92344e-07
-1.01291e-07
-8.427e-07
-9.99685e-08
-7.93753e-07
-9.8534e-08
-7.45555e-07
-9.70131e-08
-6.98134e-07
-9.54116e-08
-6.51524e-07
-9.37507e-08
-6.05739e-07
-9.20374e-08
-5.60792e-07
-9.02996e-08
-5.16678e-07
-8.85452e-08
-4.73393e-07
-8.68035e-08
-4.3091e-07
-8.50823e-08
-3.89204e-07
-8.34168e-08
-3.48226e-07
-8.18159e-08
-3.0793e-07
-8.0314e-08
-2.68245e-07
-7.89192e-08
-2.29099e-07
-7.76748e-08
-1.90399e-07
-7.65866e-08
-1.5205e-07
-7.56891e-08
-1.13929e-07
-7.49984e-08
-7.59164e-08
-7.45554e-08
-3.78708e-08
-7.43457e-08
3.1869e-10
-7.4394e-08
3.87354e-08
-7.46821e-08
7.74973e-08
-7.52219e-08
1.16866e-07
-7.60474e-08
1.57157e-07
-7.71545e-08
1.98771e-07
-7.84333e-08
2.41977e-07
-8.00054e-08
2.86865e-07
-8.2127e-08
3.33546e-07
-8.49246e-08
3.82219e-07
-8.83506e-08
4.33056e-07
-9.23255e-08
4.86201e-07
-9.67008e-08
5.41713e-07
-1.01318e-07
5.99538e-07
-1.05961e-07
6.5942e-07
-1.10289e-07
7.20834e-07
-1.13689e-07
7.82581e-07
-1.14885e-07
8.42915e-07
-1.11578e-07
8.96435e-07
-9.68101e-08
-4.776e-08
9.46369e-07
-3.42775e-09
-1.93915e-08
-1.29086e-08
-4.27552e-09
-2.47075e-08
9.35106e-09
-3.80203e-08
2.11716e-08
-5.26912e-08
3.15477e-08
-6.88153e-08
4.05867e-08
-8.65356e-08
4.83333e-08
-1.05937e-07
5.48707e-08
-1.27009e-07
6.03451e-08
-1.49678e-07
6.49441e-08
-1.73831e-07
6.88644e-08
-1.99358e-07
7.22876e-08
-2.2616e-07
7.53673e-08
-2.5417e-07
7.82269e-08
-2.8334e-07
8.09628e-08
-3.13653e-07
8.36492e-08
-3.45104e-07
8.63433e-08
-3.77702e-07
8.90889e-08
-4.1145e-07
9.19167e-08
-4.4635e-07
9.48449e-08
-4.82363e-07
9.78724e-08
-5.19397e-07
1.00967e-07
-5.57311e-07
1.04058e-07
-5.95951e-07
1.07029e-07
-6.35183e-07
1.09735e-07
-6.75157e-07
1.12027e-07
-7.16048e-07
1.13916e-07
-7.5729e-07
1.1573e-07
-7.9805e-07
1.17595e-07
-8.37823e-07
1.19425e-07
-8.76245e-07
1.21075e-07
-9.13256e-07
1.2216e-07
-9.50433e-07
1.22484e-07
-9.88272e-07
1.2231e-07
-1.0252e-06
1.22106e-07
-1.06192e-06
1.21596e-07
-1.0991e-06
1.2091e-07
-1.13622e-06
1.20402e-07
-1.17267e-06
1.20018e-07
-1.20868e-06
1.19552e-07
-1.24436e-06
1.19028e-07
-1.27975e-06
1.18474e-07
-1.31485e-06
1.17903e-07
-1.3497e-06
1.17317e-07
-1.38431e-06
1.16717e-07
-1.4187e-06
1.16101e-07
-1.45286e-06
1.15467e-07
-1.4868e-06
1.14812e-07
-1.52052e-06
1.14136e-07
-1.55401e-06
1.13433e-07
-1.58726e-06
1.12701e-07
-1.62027e-06
1.11935e-07
-1.65301e-06
1.1113e-07
-1.68548e-06
1.10282e-07
-1.71766e-06
1.09384e-07
-1.74953e-06
1.08431e-07
-1.78106e-06
1.07418e-07
-1.81225e-06
1.06338e-07
-1.84305e-06
1.05187e-07
-1.87345e-06
1.03958e-07
-1.90343e-06
1.02648e-07
-1.93295e-06
1.0125e-07
-1.96198e-06
9.97604e-08
-1.9905e-06
9.81742e-08
-2.01848e-06
9.64871e-08
-2.04587e-06
9.4695e-08
-2.07265e-06
9.27945e-08
-2.09879e-06
9.0782e-08
-2.12424e-06
8.86545e-08
-2.14897e-06
8.64091e-08
-2.17295e-06
8.40432e-08
-2.19613e-06
8.15543e-08
-2.21849e-06
7.89402e-08
-2.23997e-06
7.61991e-08
-2.26055e-06
7.33293e-08
-2.28017e-06
7.03297e-08
-2.29881e-06
6.71994e-08
-2.31643e-06
6.39377e-08
-2.33297e-06
6.05439e-08
-2.34841e-06
5.70173e-08
-2.3627e-06
5.33581e-08
-2.3758e-06
4.95658e-08
-2.38768e-06
4.5641e-08
-2.39831e-06
4.1584e-08
-2.40764e-06
3.73962e-08
-2.41564e-06
3.30791e-08
-2.42229e-06
2.86357e-08
-2.42756e-06
2.40698e-08
-2.43143e-06
1.93873e-08
-2.43389e-06
1.45968e-08
-2.43494e-06
9.71204e-09
-2.43456e-06
4.75402e-09
-2.43272e-06
-2.55467e-10
-2.42936e-06
-5.30923e-09
-2.4244e-06
-1.04284e-08
-2.41779e-06
-1.56283e-08
-2.4095e-06
-2.09007e-08
-2.3995e-06
-2.62351e-08
-2.38776e-06
-3.1623e-08
-2.37427e-06
-3.70546e-08
-2.35902e-06
-4.25198e-08
-2.34199e-06
-4.80073e-08
-2.32318e-06
-5.35053e-08
-2.3026e-06
-5.90021e-08
-2.28025e-06
-6.44851e-08
-2.25614e-06
-6.99421e-08
-2.23028e-06
-7.5359e-08
-2.20269e-06
-8.07226e-08
-2.1734e-06
-8.60174e-08
-2.14244e-06
-9.12293e-08
-2.10984e-06
-9.63419e-08
-2.07564e-06
-1.0134e-07
-2.03989e-06
-1.06208e-07
-2.00262e-06
-1.1093e-07
-1.96391e-06
-1.15489e-07
-1.92381e-06
-1.19872e-07
-1.88238e-06
-1.24062e-07
-1.8397e-06
-1.28047e-07
-1.79583e-06
-1.31812e-07
-1.75085e-06
-1.35343e-07
-1.70484e-06
-1.38628e-07
-1.65787e-06
-1.41661e-07
-1.61005e-06
-1.44448e-07
-1.56146e-06
-1.46988e-07
-1.51219e-06
-1.49255e-07
-1.46233e-06
-1.51246e-07
-1.41197e-06
-1.52976e-07
-1.3612e-06
-1.54439e-07
-1.31011e-06
-1.55622e-07
-1.2588e-06
-1.56521e-07
-1.20734e-06
-1.57133e-07
-1.15584e-06
-1.57456e-07
-1.10439e-06
-1.57493e-07
-1.05306e-06
-1.57246e-07
-1.00196e-06
-1.56722e-07
-9.51141e-07
-1.55931e-07
-9.00694e-07
-1.54879e-07
-8.50682e-07
-1.53577e-07
-8.01167e-07
-1.52036e-07
-7.52209e-07
-1.50276e-07
-7.03866e-07
-1.48327e-07
-6.56188e-07
-1.46223e-07
-6.09213e-07
-1.4399e-07
-5.62972e-07
-1.41651e-07
-5.17481e-07
-1.3923e-07
-4.72754e-07
-1.3675e-07
-4.28789e-07
-1.3424e-07
-3.8558e-07
-1.31728e-07
-3.43105e-07
-1.29242e-07
-3.01339e-07
-1.2681e-07
-2.60238e-07
-1.24468e-07
-2.19755e-07
-1.22248e-07
-1.79825e-07
-1.20182e-07
-1.40378e-07
-1.18303e-07
-1.01325e-07
-1.16654e-07
-6.25724e-08
-1.15266e-07
-2.40078e-08
-1.14172e-07
1.44737e-08
-1.134e-07
5.29883e-08
-1.12984e-07
9.16832e-08
-1.12957e-07
1.30743e-07
-1.13367e-07
1.70363e-07
-1.14218e-07
2.10753e-07
-1.15526e-07
2.52112e-07
-1.17326e-07
2.94671e-07
-1.1963e-07
3.38728e-07
-1.22412e-07
3.84552e-07
-1.2575e-07
4.32298e-07
-1.29798e-07
4.82089e-07
-1.34639e-07
5.34053e-07
-1.40242e-07
5.88303e-07
-1.46504e-07
6.44921e-07
-1.5325e-07
7.03912e-07
-1.60242e-07
7.65168e-07
-1.67154e-07
8.28416e-07
-1.73475e-07
8.93137e-07
-1.78354e-07
9.58447e-07
-1.80142e-07
1.02305e-06
-1.76134e-07
1.08543e-06
-1.59142e-07
-1.13865e-07
1.15158e-06
-1.21976e-08
-7.20263e-09
-2.78371e-08
1.13559e-08
-4.44329e-08
2.59421e-08
-6.16145e-08
3.83491e-08
-7.94035e-08
4.93333e-08
-9.79523e-08
5.91318e-08
-1.17451e-07
6.78289e-08
-1.38071e-07
7.54868e-08
-1.59925e-07
8.21966e-08
-1.83069e-07
8.80835e-08
-2.075e-07
9.32928e-08
-2.33188e-07
9.79723e-08
-2.60083e-07
1.02259e-07
-2.8813e-07
1.06271e-07
-3.17275e-07
1.10105e-07
-3.47465e-07
1.13836e-07
-3.78645e-07
1.17521e-07
-4.10757e-07
1.21197e-07
-4.43722e-07
1.24881e-07
-4.7745e-07
1.2857e-07
-5.11816e-07
1.32237e-07
-5.46675e-07
1.35823e-07
-5.81862e-07
1.39245e-07
-6.17235e-07
1.424e-07
-6.52688e-07
1.45188e-07
-6.88195e-07
1.47534e-07
-7.23733e-07
1.49453e-07
-7.59076e-07
1.51072e-07
-7.93961e-07
1.52479e-07
-8.28206e-07
1.53669e-07
-8.61719e-07
1.54586e-07
-8.94696e-07
1.55134e-07
-9.27516e-07
1.55301e-07
-9.60365e-07
1.55156e-07
-9.93043e-07
1.54782e-07
-1.02565e-06
1.54196e-07
-1.05824e-06
1.53503e-07
-1.09067e-06
1.5283e-07
-1.12284e-06
1.52186e-07
-1.15481e-06
1.5152e-07
-1.18661e-06
1.50829e-07
-1.21826e-06
1.50118e-07
-1.24975e-06
1.49394e-07
-1.28109e-06
1.48657e-07
-1.31228e-06
1.47909e-07
-1.34333e-06
1.47145e-07
-1.37422e-06
1.46362e-07
-1.40497e-06
1.45556e-07
-1.43555e-06
1.44721e-07
-1.46597e-06
1.43852e-07
-1.49621e-06
1.42943e-07
-1.52627e-06
1.41988e-07
-1.55612e-06
1.4098e-07
-1.58575e-06
1.39911e-07
-1.61514e-06
1.38776e-07
-1.64428e-06
1.37566e-07
-1.67313e-06
1.36275e-07
-1.70169e-06
1.34896e-07
-1.72993e-06
1.33421e-07
-1.75782e-06
1.31844e-07
-1.78533e-06
1.30158e-07
-1.81244e-06
1.28358e-07
-1.83911e-06
1.26437e-07
-1.86533e-06
1.24389e-07
-1.89105e-06
1.22209e-07
-1.91625e-06
1.19892e-07
-1.94089e-06
1.17434e-07
-1.96494e-06
1.1483e-07
-1.98836e-06
1.12075e-07
-2.01111e-06
1.09167e-07
-2.03317e-06
1.06103e-07
-2.05449e-06
1.02878e-07
-2.07504e-06
9.94907e-08
-2.09478e-06
9.59383e-08
-2.11367e-06
9.22189e-08
-2.13167e-06
8.8331e-08
-2.14874e-06
8.42736e-08
-2.16484e-06
8.00455e-08
-2.17994e-06
7.56465e-08
-2.194e-06
7.1076e-08
-2.20697e-06
6.63346e-08
-2.21882e-06
6.14225e-08
-2.22952e-06
5.63409e-08
-2.23902e-06
5.10916e-08
-2.2473e-06
4.5677e-08
-2.25431e-06
4.01005e-08
-2.26004e-06
3.43667e-08
-2.26445e-06
2.84815e-08
-2.2675e-06
2.24527e-08
-2.26919e-06
1.62896e-08
-2.26948e-06
1.00042e-08
-2.26833e-06
3.61019e-09
-2.2657e-06
-2.88174e-09
-2.26154e-06
-9.47057e-09
-2.2558e-06
-1.61648e-08
-2.24846e-06
-2.29667e-08
-2.23949e-06
-2.9867e-08
-2.22887e-06
-3.68529e-08
-2.21658e-06
-4.39117e-08
-2.2026e-06
-5.10293e-08
-2.18692e-06
-5.81916e-08
-2.16954e-06
-6.53832e-08
-2.15044e-06
-7.25888e-08
-2.12964e-06
-7.9792e-08
-2.10714e-06
-8.69765e-08
-2.08294e-06
-9.41251e-08
-2.05706e-06
-1.0122e-07
-2.02953e-06
-1.08242e-07
-2.00035e-06
-1.15171e-07
-1.96958e-06
-1.21989e-07
-1.93722e-06
-1.28674e-07
-1.90334e-06
-1.35207e-07
-1.86797e-06
-1.41564e-07
-1.83115e-06
-1.47727e-07
-1.79295e-06
-1.53674e-07
-1.75342e-06
-1.59385e-07
-1.71263e-06
-1.64841e-07