/*--------------------------------*- C++ -*----------------------------------*\
  =========                 |
  \\      /  F ield         | OpenFOAM: The Open Source CFD Toolbox
   \\    /   O peration     | Website:  https://openfoam.org
    \\  /    A nd           | Version:  6
     \\/     M anipulation  |
\*---------------------------------------------------------------------------*/
FoamFile
{
    version     2.0;
    format      ascii;
    class       volVectorField;
    location    "200";
    object      U;
}
// * * * * * * * * * * * * * * * * * * * * * * * * * * * * * * * * * * * * * //

dimensions      [0 1 -1 0 0 0 0];

internalField   nonuniform List<vector> 
12225
(
(9.85697 -0.886445 0)
(9.66664 -0.740745 0)
(9.4557 -0.429481 0)
(9.22451 -0.222211 0)
(9.00645 -0.106454 0)
(8.81432 -0.0458635 0)
(8.64739 -0.0151698 0)
(8.50518 0.000457492 0)
(8.38346 0.00839572 0)
(8.28066 0.0122899 0)
(8.19216 0.0140061 0)
(8.11589 0.0150212 0)
(8.04898 0.0154242 0)
(7.98978 0.015637 0)
(7.93617 0.0157339 0)
(7.88939 0.0156243 0)
(7.8342 0.0179122 0)
(7.82472 0.0124868 0)
(10.0545 0.227567 0)
(10.121 0.326913 0)
(10.1196 0.261574 0)
(10.0856 0.186545 0)
(10.0434 0.134674 0)
(9.9967 0.101122 0)
(9.94398 0.0792977 0)
(9.8852 0.0645796 0)
(9.82383 0.0542783 0)
(9.76127 0.0466979 0)
(9.69977 0.0409429 0)
(9.6399 0.0364072 0)
(9.58254 0.0327711 0)
(9.52806 0.0299494 0)
(9.4761 0.0275233 0)
(9.42842 0.0268154 0)
(9.38044 0.0239059 0)
(9.34654 0.0339152 0)
(10.0035 0.0579192 0)
(10.0303 0.05601 0)
(10.0561 0.0337852 0)
(10.0703 0.0329042 0)
(10.077 0.0406561 0)
(10.0778 0.046557 0)
(10.0725 0.049375 0)
(10.0613 0.0503255 0)
(10.0461 0.0502312 0)
(10.0276 0.0495283 0)
(10.0071 0.0485001 0)
(9.9848 0.0473589 0)
(9.96161 0.0462094 0)
(9.93789 0.0452008 0)
(9.91386 0.0442312 0)
(9.89032 0.0439707 0)
(9.8668 0.0433669 0)
(9.84508 0.0461842 0)
(9.99779 0.0110547 0)
(10.011 0.0266122 0)
(10.035 0.0371576 0)
(10.0525 0.0480957 0)
(10.0643 0.0554661 0)
(10.0734 0.0582026 0)
(10.0795 0.0583781 0)
(10.0823 0.0576438 0)
(10.0827 0.0566057 0)
(10.0811 0.0554248 0)
(10.078 0.0541743 0)
(10.0736 0.0529763 0)
(10.0682 0.0518327 0)
(10.062 0.0508588 0)
(10.0551 0.0499709 0)
(10.0481 0.0495976 0)
(10.0409 0.0491353 0)
(10.034 0.0499429 0)
(9.99935 0.00719965 0)
(10.009 0.0316598 0)
(10.0275 0.0439314 0)
(10.0418 0.049936 0)
(10.0528 0.0536296 0)
(10.0628 0.0552597 0)
(10.0715 0.0555469 0)
(10.0783 0.0552668 0)
(10.0834 0.0547368 0)
(10.0872 0.0540515 0)
(10.0899 0.0532685 0)
(10.0918 0.0524873 0)
(10.0929 0.0517301 0)
(10.0935 0.0510826 0)
(10.0936 0.0505141 0)
(10.0935 0.0502416 0)
(10.0933 0.0499873 0)
(10.0933 0.0501336 0)
(10.0003 0.00918041 0)
(10.0083 0.0311765 0)
(10.0227 0.0409548 0)
(10.0349 0.0454088 0)
(10.045 0.0490591 0)
(10.0547 0.0514008 0)
(10.0637 0.0523903 0)
(10.0713 0.0526348 0)
(10.0778 0.052516 0)
(10.0833 0.0521739 0)
(10.0881 0.0516873 0)
(10.0923 0.0511485 0)
(10.0959 0.0505991 0)
(10.0991 0.0501018 0)
(10.1019 0.0496542 0)
(10.1045 0.0493511 0)
(10.1072 0.0490597 0)
(10.11 0.0487915 0)
(10.0005 0.00894732 0)
(10.0071 0.0270932 0)
(10.0191 0.0364261 0)
(10.0302 0.0414089 0)
(10.0396 0.0454386 0)
(10.0486 0.0481112 0)
(10.0572 0.0493895 0)
(10.0649 0.0498713 0)
(10.0716 0.0499606 0)
(10.0777 0.0498054 0)
(10.0832 0.0494865 0)
(10.0882 0.0490851 0)
(10.0928 0.0486499 0)
(10.097 0.0482257 0)
(10.101 0.0478186 0)
(10.1049 0.0474598 0)
(10.1087 0.0470695 0)
(10.1126 0.0465558 0)
(10.0004 0.007919 0)
(10.006 0.0233884 0)
(10.0161 0.0327505 0)
(10.0263 0.0381224 0)
(10.0351 0.0421242 0)
(10.0436 0.0448152 0)
(10.0517 0.0462359 0)
(10.0591 0.0468822 0)
(10.0659 0.0471207 0)
(10.072 0.0470983 0)
(10.0778 0.0468964 0)
(10.0831 0.0465882 0)
(10.088 0.0462238 0)
(10.0927 0.0458363 0)
(10.0972 0.0454323 0)
(10.1016 0.0450119 0)
(10.1059 0.0445169 0)
(10.1103 0.0438497 0)
(10.0004 0.0069638 0)
(10.0051 0.0204376 0)
(10.0137 0.0294708 0)
(10.0229 0.0348852 0)
(10.0312 0.0387434 0)
(10.0391 0.0414135 0)
(10.0468 0.0429558 0)
(10.054 0.0437425 0)
(10.0606 0.0440987 0)
(10.0667 0.0441764 0)
(10.0724 0.0440587 0)
(10.0778 0.043814 0)
(10.0829 0.0434902 0)
(10.0878 0.0431143 0)
(10.0924 0.042691 0)
(10.097 0.0422087 0)
(10.1015 0.0416207 0)
(10.1059 0.0408543 0)
(10.0004 0.00613341 0)
(10.0043 0.0178735 0)
(10.0116 0.0262952 0)
(10.0199 0.0316082 0)
(10.0276 0.0353409 0)
(10.0351 0.037976 0)
(10.0424 0.0395985 0)
(10.0493 0.0404888 0)
(10.0557 0.0409324 0)
(10.0617 0.0410837 0)
(10.0673 0.0410264 0)
(10.0727 0.0408243 0)
(10.0778 0.0405219 0)
(10.0827 0.0401432 0)
(10.0874 0.0396917 0)
(10.092 0.039154 0)
(10.0965 0.0384936 0)
(10.1009 0.0376667 0)
(10.0003 0.00537387 0)
(10.0037 0.0155654 0)
(10.0099 0.023259 0)
(10.0173 0.0283751 0)
(10.0245 0.0319662 0)
(10.0315 0.0345252 0)
(10.0384 0.0361732 0)
(10.0449 0.0371279 0)
(10.0511 0.0376323 0)
(10.057 0.0378357 0)
(10.0625 0.037821 0)
(10.0678 0.0376467 0)
(10.0729 0.0373546 0)
(10.0777 0.0369667 0)
(10.0824 0.0364873 0)
(10.0869 0.0359058 0)
(10.0913 0.0351961 0)
(10.0957 0.0343383 0)
(10.0003 0.00470902 0)
(10.0032 0.0136252 0)
(10.0086 0.0206141 0)
(10.0152 0.0254654 0)
(10.0219 0.0288911 0)
(10.0285 0.0313449 0)
(10.035 0.032974 0)
(10.0413 0.0339552 0)
(10.0473 0.0344929 0)
(10.053 0.0347266 0)
(10.0584 0.0347367 0)
(10.0636 0.0345779 0)
(10.0686 0.0342888 0)
(10.0734 0.033891 0)
(10.078 0.0333902 0)
(10.0824 0.0327806 0)
(10.0867 0.0320446 0)
(10.0909 0.0311804 0)
(10.0003 0.00409449 0)
(10.0028 0.0118568 0)
(10.0075 0.0181162 0)
(10.0134 0.0226263 0)
(10.0196 0.0258518 0)
(10.0259 0.0281747 0)
(10.032 0.0297522 0)
(10.0381 0.0307323 0)
(10.0438 0.0312845 0)
(10.0494 0.0315344 0)
(10.0547 0.0315589 0)
(10.0597 0.031409 0)
(10.0646 0.0311206 0)
(10.0693 0.0307147 0)
(10.0738 0.0301995 0)
(10.0781 0.0295739 0)
(10.0823 0.0288275 0)
(10.0863 0.0279719 0)
(10.0002 0.00345968 0)
(10.0024 0.0100187 0)
(10.0064 0.0154366 0)
(10.0117 0.0194806 0)
(10.0174 0.0224223 0)
(10.0232 0.0245544 0)
(10.029 0.0260291 0)
(10.0347 0.0269702 0)
(10.0403 0.0275113 0)
(10.0456 0.0277603 0)
(10.0507 0.0277874 0)
(10.0557 0.0276395 0)
(10.0604 0.0273493 0)
(10.0649 0.0269374 0)
(10.0693 0.0264143 0)
(10.0735 0.0257837 0)
(10.0776 0.0250422 0)
(10.0814 0.0242109 0)
(10.0002 0.00280055 0)
(10.002 0.00810943 0)
(10.0055 0.0125853 0)
(10.0101 0.0160334 0)
(10.0153 0.0185889 0)
(10.0206 0.0204546 0)
(10.026 0.021762 0)
(10.0314 0.0226117 0)
(10.0367 0.0231046 0)
(10.0418 0.0233269 0)
(10.0468 0.0233394 0)
(10.0515 0.0231834 0)
(10.0561 0.022888 0)
(10.0605 0.0224732 0)
(10.0647 0.021951 0)
(10.0688 0.0213295 0)
(10.0726 0.0206103 0)
(10.0764 0.0198206 0)
(10.0002 0.00211635 0)
(10.0017 0.00613079 0)
(10.0047 0.00957075 0)
(10.0087 0.0122889 0)
(10.0134 0.0143389 0)
(10.0183 0.0158449 0)
(10.0233 0.0169058 0)
(10.0283 0.0175975 0)
(10.0333 0.0179915 0)
(10.0382 0.0181514 0)
(10.0429 0.0181252 0)
(10.0475 0.017947 0)
(10.0519 0.0176414 0)
(10.0562 0.0172263 0)
(10.0602 0.0167146 0)
(10.0641 0.0161166 0)
(10.0678 0.0154371 0)
(10.0713 0.0147052 0)
(10.0002 0.00140406 0)
(10.0015 0.00406853 0)
(10.0041 0.00637615 0)
(10.0076 0.00822974 0)
(10.0118 0.00964309 0)
(10.0163 0.0106805 0)
(10.0209 0.0114029 0)
(10.0257 0.0118589 0)
(10.0304 0.0120935 0)
(10.035 0.0121471 0)
(10.0395 0.0120527 0)
(10.0439 0.0118347 0)
(10.0481 0.0115117 0)
(10.0522 0.0110979 0)
(10.0561 0.0106051 0)
(10.0598 0.0100431 0)
(10.0633 0.00941777 0)
(10.0667 0.00875667 0)
(10.0001 0.000647119 0)
(10.0013 0.00187052 0)
(10.0036 0.00292894 0)
(10.0069 0.00377512 0)
(10.0107 0.00440988 0)
(10.0149 0.00485564 0)
(10.0192 0.00513532 0)
(10.0237 0.00526875 0)
(10.0281 0.00527511 0)
(10.0326 0.00517242 0)
(10.0369 0.0049759 0)
(10.0411 0.00469778 0)
(10.0451 0.00434816 0)
(10.049 0.00393571 0)
(10.0527 0.00346805 0)
(10.0563 0.00295269 0)
(10.0597 0.00239395 0)
(10.0629 0.00181542 0)
(10.0001 -0.000197707 0)
(10.0013 -0.000585499 0)
(10.0035 -0.000944646 0)
(10.0066 -0.00126799 0)
(10.0103 -0.00155466 0)
(10.0143 -0.00181873 0)
(10.0185 -0.00207798 0)
(10.0228 -0.00234464 0)
(10.0272 -0.00262611 0)
(10.0314 -0.00292822 0)
(10.0356 -0.00325543 0)
(10.0397 -0.00361037 0)
(10.0436 -0.00399385 0)
(10.0473 -0.00440546 0)
(10.0509 -0.00484378 0)
(10.0543 -0.00530622 0)
(10.0576 -0.00579175 0)
(10.0607 -0.00628334 0)
(10.0001 -0.00100616 0)
(10.0013 -0.00294246 0)
(10.0037 -0.0046688 0)
(10.007 -0.00610735 0)
(10.0108 -0.00725467 0)
(10.015 -0.00817065 0)
(10.0193 -0.00891666 0)
(10.0237 -0.00953474 0)
(10.0281 -0.0100593 0)
(10.0324 -0.0105218 0)
(10.0365 -0.0109473 0)
(10.0405 -0.0113525 0)
(10.0444 -0.0117485 0)
(10.0481 -0.012143 0)
(10.0516 -0.0125408 0)
(10.055 -0.0129444 0)
(10.0582 -0.013356 0)
(10.0612 -0.0137647 0)
(10.0002 -0.00170347 0)
(10.0015 -0.00500104 0)
(10.0041 -0.00792349 0)
(10.0078 -0.0102712 0)
(10.012 -0.0120651 0)
(10.0165 -0.0134554 0)
(10.021 -0.014548 0)
(10.0256 -0.0154002 0)
(10.0301 -0.0160686 0)
(10.0344 -0.016612 0)
(10.0386 -0.0170749 0)
(10.0427 -0.0174858 0)
(10.0466 -0.0178641 0)
(10.0503 -0.0182235 0)
(10.0538 -0.0185733 0)
(10.0571 -0.0189189 0)
(10.0603 -0.0192647 0)
(10.0633 -0.0196034 0)
(10.0002 -0.00236571 0)
(10.0017 -0.00703518 0)
(10.0047 -0.0111754 0)
(10.009 -0.0143425 0)
(10.0137 -0.0166365 0)
(10.0185 -0.0183679 0)
(10.0234 -0.0196966 0)
(10.0282 -0.0206935 0)
(10.0329 -0.0214399 0)
(10.0374 -0.0220172 0)
(10.0417 -0.0224817 0)
(10.0458 -0.0228703 0)
(10.0497 -0.0232093 0)
(10.0534 -0.0235183 0)
(10.0569 -0.0238103 0)
(10.0603 -0.0240931 0)
(10.0634 -0.0243721 0)
(10.0664 -0.0246428 0)
(10.0002 -0.00298553 0)
(10.0018 -0.00909501 0)
(10.0054 -0.0144491 0)
(10.0105 -0.018337 0)
(10.0159 -0.0210797 0)
(10.0212 -0.0231006 0)
(10.0263 -0.0245549 0)
(10.0314 -0.0255677 0)
(10.0363 -0.0262933 0)
(10.041 -0.0268417 0)
(10.0454 -0.0272694 0)
(10.0495 -0.0276119 0)
(10.0535 -0.0278987 0)
(10.0572 -0.0281522 0)
(10.0607 -0.0283865 0)
(10.0641 -0.0286101 0)
(10.0672 -0.0288284 0)
(10.0702 -0.0290389 0)
(10.0001 -0.00353191 0)
(10.0018 -0.0115498 0)
(10.0063 -0.0178858 0)
(10.0123 -0.021983 0)
(10.0183 -0.0250495 0)
(10.0241 -0.0274584 0)
(10.0297 -0.0290959 0)
(10.0351 -0.0301054 0)
(10.0402 -0.0307573 0)
(10.0449 -0.0312164 0)
(10.0494 -0.0315505 0)
(10.0537 -0.0318 0)
(10.0577 -0.0319989 0)
(10.0614 -0.0321711 0)
(10.065 -0.03233 0)
(10.0683 -0.032483 0)
(10.0714 -0.0326336 0)
(10.0744 -0.0327783 0)
(9.99991 -0.00338086 0)
(10.0016 -0.0149673 0)
(10.0073 -0.0227252 0)
(10.0142 -0.0262369 0)
(10.0206 -0.0288237 0)
(10.0269 -0.0311889 0)
(10.0331 -0.03291 0)
(10.039 -0.0339977 0)
(10.0445 -0.0346972 0)
(10.0495 -0.0351608 0)
(10.0541 -0.0354588 0)
(10.0584 -0.0356456 0)
(10.0624 -0.0357672 0)
(10.0661 -0.0358546 0)
(10.0695 -0.0359258 0)
(10.0727 -0.0359907 0)
(10.0756 -0.0360541 0)
(10.0783 -0.0361146 0)
(9.9986 -0.000398171 0)
(9.99909 -0.0157559 0)
(10.0075 -0.0274291 0)
(10.0166 -0.03249 0)
(10.0238 -0.0348664 0)
(10.0306 -0.036222 0)
(10.0376 -0.0369736 0)
(10.0441 -0.03744 0)
(10.0499 -0.0377884 0)
(10.055 -0.0380354 0)
(10.0596 -0.0381803 0)
(10.0637 -0.0382483 0)
(10.0672 -0.0382694 0)
(10.0704 -0.0382647 0)
(10.0732 -0.0382496 0)
(10.0756 -0.0382323 0)
(10.0778 -0.0382168 0)
(10.0796 -0.038201 0)
(9.99488 0.00133552 0)
(9.99288 -0.00809222 0)
(10.006 -0.020351 0)
(10.0202 -0.0322758 0)
(10.0307 -0.0404776 0)
(10.0393 -0.0441487 0)
(10.0467 -0.0450606 0)
(10.0529 -0.0449156 0)
(10.0578 -0.0444483 0)
(10.0617 -0.0438524 0)
(10.0647 -0.0432076 0)
(10.0668 -0.0425709 0)
(10.0683 -0.0419765 0)
(10.0691 -0.0414326 0)
(10.0695 -0.0409489 0)
(10.0693 -0.0405219 0)
(10.0689 -0.0401489 0)
(10.0681 -0.0398042 0)
(9.99473 -0.0305614 0)
(9.99925 -0.0228716 0)
(10.0147 -0.00263492 0)
(10.0304 -0.00190876 0)
(10.0434 -0.0116579 0)
(10.0533 -0.0209213 0)
(10.0594 -0.0272779 0)
(10.0619 -0.0315053 0)
(10.0615 -0.0342798 0)
(10.0591 -0.0359759 0)
(10.0551 -0.0369076 0)
(10.0498 -0.037341 0)
(10.0435 -0.0374666 0)
(10.0365 -0.0374042 0)
(10.029 -0.0372442 0)
(10.021 -0.0370416 0)
(10.0129 -0.0368616 0)
(10.0047 -0.0366728 0)
(10.0273 -0.182758 0)
(10.0763 -0.288313 0)
(10.0872 -0.247755 0)
(10.0777 -0.186519 0)
(10.0664 -0.140296 0)
(10.0538 -0.108221 0)
(10.0365 -0.0858807 0)
(10.0145 -0.0704204 0)
(9.9894 -0.0596512 0)
(9.96237 -0.0518771 0)
(9.9344 -0.0460548 0)
(9.90609 -0.0415572 0)
(9.87792 -0.0380012 0)
(9.85022 -0.0351263 0)
(9.82324 -0.0327602 0)
(9.79707 -0.0308397 0)
(9.77199 -0.0293237 0)
(9.748 -0.0285049 0)
(9.93574 0.689319 0)
(9.86861 0.609605 0)
(9.76454 0.380623 0)
(9.62665 0.217442 0)
(9.48591 0.119268 0)
(9.35722 0.0631873 0)
(9.24271 0.0315761 0)
(9.14116 0.0136165 0)
(9.05148 0.00326359 0)
(8.97252 -0.00279761 0)
(8.90262 -0.00635314 0)
(8.84045 -0.00847238 0)
(8.78476 -0.00972325 0)
(8.73466 -0.0104694 0)
(8.68924 -0.0109728 0)
(8.6479 -0.0112424 0)
(8.60971 -0.0114497 0)
(8.57437 -0.0121108 0)
(0.00702799 -0.016195 -8.41152e-19)
(0.0206117 -0.0199061 6.43033e-19)
(0.0296553 -0.0129393 0)
(0.0330452 -0.00328869 0)
(0.0301633 0.00541893 0)
(0.0223122 0.0118823 -2.88678e-19)
(0.010759 0.0161256 0)
(-0.00343379 0.0186603 0)
(-0.0194785 0.020084 0)
(-0.0368712 0.0208826 0)
(-0.0552767 0.0213729 1.56308e-19)
(-0.0744871 0.0217331 0)
(-0.0943796 0.0220563 0)
(-0.114879 0.0223837 0)
(-0.135933 0.0227315 0)
(-0.157511 0.0231017 1.02139e-19)
(-0.179599 0.0234973 0)
(-0.202187 0.0239341 0)
(-0.225276 0.0244441 0)
(-0.248926 0.0250654 0)
(-0.273199 0.0258712 0)
(-0.298127 0.0269677 0)
(-0.323848 0.028331 0)
(-0.350551 0.0299235 7.92143e-20)
(-0.378173 0.0315635 -7.85515e-20)
(-0.406284 0.0283066 7.69323e-20)
(-0.434379 0.0186724 7.42789e-20)
(-0.460582 0.0164733 0)
(-0.487107 0.024928 0)
(-0.517671 0.0355265 -6.63327e-20)
(-0.550537 0.0508665 -6.43425e-20)
(-0.586221 0.0722292 0)
(-0.626422 0.059276 0)
(-0.667203 0.0344505 -9.32112e-20)
(-0.702494 0.0437223 0)
(-0.742682 0.0410091 0)
(-0.781487 0.0275703 7.97576e-20)
(-0.817471 0.0262629 0)
(-0.853088 0.0343707 7.5073e-20)
(-0.892537 0.0351902 1.45413e-19)
(-0.931714 0.0353013 0)
(-0.971106 0.03523 0)
(-1.01061 0.0351336 0)
(-1.05021 0.0349756 0)
(-1.08985 0.0347746 0)
(-1.12949 0.0345359 1.21587e-19)
(-1.16909 0.0342736 1.18415e-19)
(-1.20865 0.0339947 1.15428e-19)
(-1.24812 0.0337047 0)
(-1.28752 0.0334072 -1.09956e-19)
(-1.32681 0.0331032 0)
(-1.36599 0.0327939 1.0506e-19)
(-1.40505 0.032479 1.028e-19)
(-1.44397 0.0321583 0)
(-1.48274 0.03183 0)
(-1.52135 0.0314934 0)
(-1.55977 0.0311466 9.47963e-20)
(-1.59799 0.0307888 0)
(-1.63599 0.0304178 0)
(-1.67374 0.0300324 0)
(-1.71122 0.0296313 0)
(-1.7484 0.0292131 0)
(-1.78525 0.0287764 0)
(-1.82174 0.0283199 0)
(-1.85783 0.0278425 0)
(-1.8935 0.0273432 -8.10978e-20)
(-1.9287 0.0268211 0)
(-1.9634 0.0262757 0)
(-1.99756 0.0257064 7.74222e-20)
(-2.03113 0.0251126 7.62665e-20)
(-2.06408 0.0244939 0)
(-2.09635 0.0238499 -7.40443e-20)
(-2.12792 0.0231803 7.29728e-20)
(-2.15872 0.0224848 0)
(-2.18872 0.0217633 -7.08963e-20)
(-2.21787 0.0210155 0)
(-2.24612 0.0202422 0)
(-2.27341 0.0194428 6.79162e-20)
(-2.29971 0.0186172 0)
(-2.32495 0.017764 -6.59956e-20)
(-2.3491 0.0168829 0)
(-2.37209 0.0159716 6.41096e-20)
(-2.39388 0.0150278 6.3175e-20)
(-2.41441 0.0140472 6.22432e-20)
(-2.43362 0.0130253 1.22626e-19)
(-2.45146 0.0119549 -1.20765e-19)
(-2.46786 0.0108287 0)
(-2.48274 0.00963794 0)
(-2.49605 0.00837601 0)
(-2.50769 0.0070412 -1.1325e-19)
(-2.51759 0.00564466 -1.11344e-19)
(-2.52564 0.0042202 1.09429e-19)
(-2.53173 0.00281502 0)
(-2.5357 0.0014728 -1.0556e-19)
(-2.53747 0.000267432 -1.03536e-19)
(-2.53755 -0.00082431 -1.01467e-19)
(-2.53588 -0.00189047 0)
(-2.53249 -0.00295016 0)
(-2.52737 -0.00401294 0)
(-2.5205 -0.00507925 -9.26721e-20)
(-2.51186 -0.00614811 0)
(-2.50144 -0.0072187 0)
(-2.48923 -0.00828977 8.54087e-20)
(-2.47521 -0.00935994 0)
(-2.45939 -0.0104278 0)
(-2.44177 -0.0114916 7.74491e-20)
(-2.42234 -0.0125496 0)
(-2.40112 -0.0135992 0)
(-2.37812 -0.0146387 -6.86803e-20)
(-2.35335 -0.0156648 -6.55587e-20)
(-2.32684 -0.0166757 0)
(-2.29862 -0.0176675 5.89938e-20)
(-2.26871 -0.0186387 0)
(-2.23716 -0.0195849 -5.1976e-20)
(-2.20401 -0.0205052 0)
(-2.1693 -0.0213944 -4.44782e-20)
(-2.13309 -0.0222516 -4.05418e-20)
(-2.09545 -0.0230717 0)
(-2.05642 -0.0238543 0)
(-2.01608 -0.024595 0)
(-1.97448 -0.0252938 0)
(-1.9317 -0.0259465 0)
(-1.88782 -0.0265577 0)
(-1.84291 -0.0271248 0)
(-1.79706 -0.0276495 -4.21886e-21)
(-1.75037 -0.0281219 -9.53323e-22)
(-1.70292 -0.0285459 0)
(-1.6548 -0.0289168 0)
(-1.60608 -0.0292359 0)
(-1.55686 -0.0294956 0)
(-1.50723 -0.0296991 -5.79445e-20)
(-1.45729 -0.0298403 0)
(-1.40713 -0.029922 8.23597e-20)
(-1.35684 -0.0299402 -9.49869e-20)
(-1.30652 -0.0298977 0)
(-1.25626 -0.0297921 0)
(-1.20615 -0.0296244 0)
(-1.15625 -0.0293918 1.48205e-19)
(-1.10666 -0.0290946 1.62176e-19)
(-1.05745 -0.0287388 0)
(-1.00871 -0.0283314 1.90905e-19)
(-0.960502 -0.0278805 2.05652e-19)
(-0.912879 -0.0273893 -2.20647e-19)
(-0.865887 -0.0268597 0)
(-0.819566 -0.0262928 0)
(-0.77395 -0.0256934 -2.67078e-19)
(-0.729068 -0.0250653 0)
(-0.684934 -0.0244147 0)
(-0.641557 -0.0237451 0)
(-0.598936 -0.0230633 0)
(-0.557058 -0.0223746 3.49215e-19)
(-0.515899 -0.0216875 3.66388e-19)
(-0.475429 -0.0210067 0)
(-0.435602 -0.0203409 4.01601e-19)
(-0.396364 -0.0196984 0)
(-0.357647 -0.0190886 0)
(-0.319374 -0.018517 4.57062e-19)
(-0.281457 -0.0179969 0)
(-0.243793 -0.0175383 4.96421e-19)
(-0.206273 -0.0171489 0)
(-0.168778 -0.0168414 0)
(-0.131153 -0.0166454 5.60966e-19)
(-0.0932555 -0.0165863 0)
(-0.0550014 -0.0166669 6.09583e-19)
(-0.0162822 -0.0168303 0)
(0.0228092 -0.0168558 0)
(0.0616013 -0.0165377 0)
(0.100556 -0.0161694 -6.42139e-19)
(0.140677 -0.0160614 0)
(0.182203 -0.0162045 6.14032e-19)
(0.225564 -0.0165702 0)
(0.271078 -0.0171006 0)
(0.319012 -0.0177476 0)
(0.369541 -0.0184742 0)
(0.422738 -0.0192257 0)
(0.478235 -0.0198699 0)
(0.536094 -0.0201144 0)
(0.59135 -0.0193787 -1.04164e-18)
(0.65258 -0.0161962 0)
(0.660038 0.00237801 0)
(0.00452742 -0.0412173 1.88365e-18)
(0.00813413 -0.0313904 -9.85895e-19)
(0.00565687 -0.0132308 0)
(-2.39946e-05 0.00397792 2.98455e-19)
(-0.00830572 0.018833 0)
(-0.0191614 0.0307668 1.10727e-19)
(-0.0324298 0.0398155 -2.00832e-19)
(-0.0479184 0.0464025 -1.84443e-19)
(-0.0653535 0.0511051 0)
(-0.0844402 0.0544794 -1.58666e-19)
(-0.104922 0.05697 -7.42067e-20)
(-0.126596 0.0588933 0)
(-0.149318 0.060458 0)
(-0.172996 0.0617966 0)
(-0.197579 0.0629912 0)
(-0.223056 0.0640941 -5.7083e-20)
(-0.249446 0.0651409 0)
(-0.276783 0.0661633 1.06357e-19)
(-0.305127 0.0671923 0)
(-0.334546 0.0682652 0)
(-0.365073 0.0694433 -9.96583e-20)
(-0.396756 0.0708032 0)
(-0.429668 0.0723786 9.79908e-20)
(-0.463771 0.0741468 -4.8958e-20)
(-0.498651 0.0760434 4.88952e-20)
(-0.53483 0.0776527 -4.85157e-20)
(-0.573124 0.0787756 -4.76283e-20)
(-0.613406 0.0802386 0)
(-0.654633 0.0824082 0)
(-0.695176 0.0845853 4.50304e-20)
(-0.735418 0.0859618 -4.47449e-20)
(-0.773511 0.087133 0)
(-0.813009 0.0878904 0)
(-0.852864 0.0886512 4.61879e-20)
(-0.892782 0.0907479 0)
(-0.930811 0.0914766 0)
(-0.9697 0.0912403 -4.021e-20)
(-1.00935 0.0911363 0)
(-1.04862 0.0914219 3.79289e-20)
(-1.08659 0.0913719 -7.4292e-20)
(-1.12414 0.0909849 0)
(-1.16134 0.0904108 0)
(-1.19822 0.0897023 -1.38547e-19)
(-1.23483 0.0889038 -1.35638e-19)
(-1.27118 0.0880404 -1.32875e-19)
(-1.30729 0.0871321 6.49636e-20)
(-1.34317 0.0861924 -6.40307e-20)
(-1.37883 0.0852314 -1.8819e-19)
(-1.41427 0.0842542 1.23071e-19)
(-1.44949 0.0832643 6.06022e-20)
(-1.48447 0.0822622 0)
(-1.51921 0.0812478 -5.8551e-20)
(-1.55371 0.0802192 5.72726e-20)
(-1.58795 0.0791748 0)
(-1.62192 0.0781113 0)
(-1.65559 0.077026 0)
(-1.68896 0.0759154 -5.40613e-20)
(-1.722 0.0747769 0)
(-1.7547 0.0736071 1.0464e-19)
(-1.78703 0.0724033 0)
(-1.81896 0.0711626 1.01649e-19)
(-1.85047 0.069883 0)
(-1.88154 0.0685618 -9.8818e-20)
(-1.91213 0.067197 0)
(-1.94221 0.0657865 9.61231e-20)
(-1.97176 0.0643287 -4.72762e-20)
(-2.00074 0.0628224 0)
(-2.02911 0.0612666 -9.22896e-20)
(-2.05685 0.0596607 -4.56534e-20)
(-2.08393 0.0580039 -4.50436e-20)
(-2.11029 0.056296 0)
(-2.13591 0.0545365 -4.36201e-20)
(-2.16076 0.0527253 -4.32596e-20)
(-2.18478 0.0508624 0)
(-2.20795 0.0489482 4.20978e-20)
(-2.23023 0.046983 -8.28505e-20)
(-2.25158 0.0449681 0)
(-2.27195 0.0429042 -4.03771e-20)
(-2.29131 0.0407923 0)
(-2.30962 0.0386326 1.17546e-19)
(-2.32683 0.036426 0)
(-2.3429 0.0341729 -1.1412e-19)
(-2.35781 0.0318742 -3.75052e-20)
(-2.3715 0.0295294 3.68132e-20)
(-2.38394 0.0271391 7.24754e-20)
(-2.39509 0.0247023 -7.13137e-20)
(-2.40491 0.0222177 0)
(-2.41338 0.019682 0)
(-2.42046 0.0170902 0)
(-2.42615 0.0144344 1.99679e-19)
(-2.43045 0.0117091 6.53042e-20)
(-2.43338 0.008924 -6.4019e-20)
(-2.43502 0.00611623 0)
(-2.43544 0.00335054 -6.14495e-20)
(-2.43475 0.000713252 5.99937e-20)
(-2.43254 -0.00181076 5.85831e-20)
(-2.42873 -0.00429461 0)
(-2.42326 -0.00675523 0)
(-2.4161 -0.00920114 0)
(-2.40723 -0.0116326 5.26499e-20)
(-2.39664 -0.0140464 0)
(-2.3843 -0.0164386 -9.93326e-20)
(-2.37021 -0.0188041 -1.43971e-19)
(-2.35435 -0.0211384 9.28153e-20)
(-2.33674 -0.0234369 0)
(-2.31736 -0.0256949 4.32558e-20)
(-2.29622 -0.0279078 0)
(-2.27333 -0.0300703 7.88763e-20)
(-2.24871 -0.0321776 -3.7914e-20)
(-2.22238 -0.0342239 -3.60527e-20)
(-2.19436 -0.0362046 0)
(-2.16468 -0.0381133 -9.51022e-20)
(-2.13337 -0.0399459 5.9643e-20)
(-2.10047 -0.041696 2.73556e-20)
(-2.06603 -0.04336 0)
(-2.0301 -0.0449317 2.31025e-20)
(-1.99273 -0.0464086 6.37054e-20)
(-1.95398 -0.0477853 0)
(-1.91392 -0.0490596 3.38951e-20)
(-1.87261 -0.0502263 2.93396e-20)
(-1.83011 -0.0512843 2.47143e-20)
(-1.78651 -0.0522336 0)
(-1.74187 -0.0530826 0)
(-1.6963 -0.0538201 0)
(-1.64986 -0.0544411 -3.38966e-21)
(-1.60265 -0.054954 2.66023e-22)
(-1.55475 -0.0553702 0)
(-1.50626 -0.0556777 9.27377e-21)
(-1.45725 -0.0558778 1.4299e-20)
(-1.40782 -0.0559665 0)
(-1.35805 -0.0559488 2.56893e-20)
(-1.30805 -0.055821 5.90012e-20)
(-1.25789 -0.0555891 -3.58624e-20)
(-1.20768 -0.0552517 -3.83983e-20)
(-1.1575 -0.0548158 0)
(-1.10743 -0.0542831 0)
(-1.05756 -0.053659 0)
(-1.00797 -0.0529444 -6.10762e-20)
(-0.958716 -0.0521444 6.35882e-20)
(-0.909872 -0.0512672 1.39465e-19)
(-0.861508 -0.0503278 -7.57867e-20)
(-0.813688 -0.0493397 7.82805e-20)
(-0.766464 -0.0483151 8.53159e-20)
(-0.719875 -0.0472588 0)
(-0.673954 -0.046179 0)
(-0.628726 -0.0450815 -9.70047e-20)
(-0.584206 -0.0439778 0)
(-0.540401 -0.0428741 0)
(-0.497306 -0.041782 2.2215e-19)
(-0.45491 -0.0407077 0)
(-0.413187 -0.039665 1.1843e-19)
(-0.372102 -0.0386607 -1.23958e-19)
(-0.331608 -0.0377074 0)
(-0.291647 -0.0368109 1.29977e-19)
(-0.252149 -0.0359878 0)
(-0.213031 -0.0352429 0)
(-0.174196 -0.0345882 -1.41551e-19)
(-0.135533 -0.0340325 2.88403e-19)
(-0.0969206 -0.0335937 -1.47758e-19)
(-0.0582226 -0.0332712 0)
(-0.0192913 -0.0330762 0)
(0.0199905 -0.032998 1.55285e-19)
(0.0596352 -0.0329862 0)
(0.0998867 -0.0330412 1.56212e-19)
(0.141098 -0.0331807 0)
(0.183605 -0.0333245 0)
(0.227775 -0.0335212 0)
(0.27385 -0.0339733 1.55621e-19)
(0.321913 -0.0347681 0)
(0.372124 -0.035864 -1.55174e-19)
(0.424706 -0.037213 0)
(0.479831 -0.0387397 0)
(0.537648 -0.0403703 3.09105e-19)
(0.598192 -0.0420166 -3.09257e-19)
(0.661359 -0.0435365 0)
(0.726678 -0.0446944 0)
(0.793815 -0.0449357 0)
(0.859295 -0.0433559 9.46209e-19)
(0.927651 -0.036586 0)
(0.9677 -0.0134062 -6.61016e-19)
(-0.00250415 -0.0431515 -1.02426e-21)
(-0.00765961 -0.019401 9.39259e-19)
(-0.0164259 0.00435659 0)
(-0.0274083 0.0251269 -3.75116e-19)
(-0.0398721 0.0430457 0)
(-0.0535801 0.05818 0)
(-0.0686377 0.0706158 3.34719e-23)
(-0.0851724 0.0805818 1.16673e-19)
(-0.103225 0.0884464 1.09936e-19)
(-0.122756 0.0946419 1.04323e-19)
(-0.143677 0.099589 0)
(-0.165888 0.103649 0)
(-0.189293 0.10711 -9.11519e-20)
(-0.21382 0.110187 -1.75423e-19)
(-0.239419 0.113041 1.69331e-19)
(-0.266066 0.115793 0)
(-0.293757 0.118538 1.59332e-19)
(-0.322497 0.121351 -7.77109e-20)
(-0.352299 0.124292 0)
(-0.383175 0.127408 1.49351e-19)
(-0.41511 0.130724 7.36203e-20)
(-0.448047 0.134223 -1.45394e-19)
(-0.48188 0.13784 -7.18711e-20)
(-0.516457 0.141401 0)
(-0.551608 0.144635 1.39469e-19)
(-0.587354 0.147156 1.36596e-19)
(-0.623909 0.148907 0)
(-0.661179 0.150765 1.30093e-19)
(-0.698452 0.152975 0)
(-0.734956 0.155263 1.24396e-19)
(-0.770546 0.157518 6.13544e-20)
(-0.805023 0.158932 0)
(-0.839133 0.158554 0)
(-0.873334 0.157064 0)
(-0.907293 0.155811 0)
(-0.940754 0.15371 0)
(-0.974553 0.151057 0)
(-1.00874 0.149028 1.03279e-19)
(-1.04269 0.147561 -1.51486e-19)
(-1.07607 0.146009 0)
(-1.10911 0.144418 0)
(-1.1419 0.142809 0)
(-1.17448 0.141187 1.48388e-22)
(-1.20687 0.139549 9.12736e-20)
(-1.23908 0.137898 1.7901e-19)
(-1.27112 0.136234 -1.75775e-19)
(-1.30301 0.13456 -8.6254e-20)
(-1.33475 0.132878 8.49338e-20)
(-1.36634 0.131186 -1.7061e-22)
(-1.39776 0.129484 8.19583e-20)
(-1.42903 0.127769 0)
(-1.46012 0.126037 7.93523e-20)
(-1.49103 0.124285 -1.75173e-22)
(-1.52174 0.122507 0)
(-1.55224 0.120699 0)
(-1.58251 0.118856 -7.46363e-20)
(-1.61255 0.116973 0)
(-1.64232 0.115045 0)
(-1.6718 0.113068 7.12752e-20)
(-1.70098 0.111038 1.40879e-19)
(-1.72983 0.10895 -6.96245e-20)
(-1.75832 0.106802 0)
(-1.78644 0.104589 6.77154e-20)
(-1.81414 0.10231 0)
(-1.84141 0.099962 6.55593e-20)
(-1.86821 0.0975422 6.49853e-20)
(-1.89451 0.0950495 -1.27902e-19)
(-1.92028 0.0924825 -6.2936e-20)
(-1.94549 0.0898404 0)
(-1.9701 0.0871225 1.22777e-19)
(-1.99409 0.0843284 0)
(-2.0174 0.0814579 1.79309e-19)
(-2.04002 0.0785112 1.17806e-19)
(-2.06189 0.0754885 1.16171e-19)
(-2.08299 0.0723907 -1.14544e-19)
(-2.10328 0.0692186 1.69493e-19)
(-2.12271 0.0659738 0)
(-2.14125 0.0626575 0)
(-2.15887 0.0592712 -1.08058e-19)
(-2.17551 0.0558162 -1.59734e-19)
(-2.19115 0.0522944 0)
(-2.20575 0.048707 5.16516e-20)
(-2.21926 0.0450561 0)
(-2.23165 0.0413436 -1.49821e-19)
(-2.24288 0.0375722 -9.86264e-23)
(-2.25293 0.0337446 8.22992e-23)
(-2.26175 0.0298649 9.47564e-20)
(-2.26933 0.025938 0)
(-2.27563 0.0219711 -9.12707e-20)
(-2.28064 0.0179739 -1.04576e-23)
(-2.28435 0.0139613 0)
(-2.28676 0.00995456 0)
(-2.28782 0.00597557 0)
(-2.28751 0.00203491 8.20164e-20)
(-2.28575 -0.00189322 0)
(-2.28247 -0.00582632 0)
(-2.27763 -0.00975185 0)
(-2.27119 -0.013663 0)
(-2.26312 -0.0175548 0)
(-2.2534 -0.0214211 6.98032e-20)
(-2.24201 -0.0252551 0)
(-2.22894 -0.029049 6.51749e-20)
(-2.21417 -0.0327949 6.29046e-20)
(-2.1977 -0.0364851 -6.05944e-20)
(-2.17953 -0.0401114 0)
(-2.15966 -0.0436662 -5.58514e-20)
(-2.13809 -0.0471413 0)
(-2.11483 -0.0505285 -5.09431e-20)
(-2.08991 -0.0538192 4.84267e-20)
(-2.06333 -0.057005 1.38504e-19)
(-2.03513 -0.0600771 0)
(-2.00533 -0.0630275 1.2289e-19)
(-1.97397 -0.0658474 3.89943e-20)
(-1.94108 -0.0685292 0)
(-1.90672 -0.0710648 6.61057e-20)
(-1.87093 -0.0734474 6.05754e-20)
(-1.83376 -0.0756705 -8.18596e-20)
(-1.79528 -0.0777288 0)
(-1.75555 -0.0796161 -2.11524e-20)
(-1.71463 -0.081327 -1.82469e-20)
(-1.67259 -0.0828573 -4.73123e-20)
(-1.62951 -0.0842074 0)
(-1.58546 -0.0853874 0)
(-1.54052 -0.0863971 0)
(-1.49479 -0.0872206 -4.88523e-21)
(-1.44834 -0.0878636 0)
(-1.40126 -0.0883416 0)
(-1.35364 -0.0886508 -5.60351e-21)
(-1.30555 -0.0887878 -8.60775e-21)
(-1.25708 -0.0887525 0)
(-1.20832 -0.0885475 0)
(-1.15936 -0.0881743 -3.51192e-20)
(-1.11028 -0.0876382 0)
(-1.06118 -0.0869434 4.68715e-20)
(-1.01212 -0.0860978 5.11384e-20)
(-0.963194 -0.0851083 0)
(-0.914476 -0.0839829 0)
(-0.866033 -0.0827275 -6.81571e-20)
(-0.817926 -0.0813515 -1.46142e-21)
(-0.770216 -0.0798683 -1.43627e-21)
(-0.722964 -0.0782977 0)
(-0.676226 -0.0766591 -1.80761e-19)
(-0.630047 -0.0749702 0)
(-0.584459 -0.0732419 0)
(-0.539489 -0.0714876 0)
(-0.495152 -0.0697186 1.10765e-19)
(-0.451456 -0.0679512 0)
(-0.408399 -0.0661974 -2.37433e-19)
(-0.365968 -0.064473 -1.24177e-19)
(-0.32414 -0.0627896 0)
(-0.282881 -0.0611656 -1.32398e-19)
(-0.242149 -0.0596133 0)
(-0.201887 -0.0581496 0)
(-0.162027 -0.0567853 -4.29138e-19)
(-0.122488 -0.055542 2.92499e-19)
(-0.0831815 -0.0544301 0)
(-0.0439994 -0.0534654 3.0546e-19)
(-0.00481971 -0.0526578 -1.56329e-19)
(0.0344571 -0.052018 0)
(0.0739563 -0.0515467 0)
(0.113872 -0.0512627 0)
(0.154401 -0.0511649 -4.85341e-19)
(0.195748 -0.0512693 0)
(0.23814 -0.0515973 -1.63302e-19)
(0.281797 -0.0521428 0)
(0.326996 -0.0528745 0)
(0.374056 -0.0538336 0)
(0.42324 -0.0551073 0)
(0.474681 -0.0567445 0)
(0.528517 -0.0587275 0)
(0.584893 -0.0610083 -3.32004e-19)
(0.643933 -0.0634999 0)
(0.705718 -0.0660927 -1.6766e-19)
(0.770215 -0.0686504 5.04778e-19)
(0.837278 -0.0709613 0)
(0.906449 -0.0726634 0)
(0.977372 -0.0730435 -3.44368e-19)
(1.04751 -0.0708746 -3.50041e-19)
(1.1207 -0.0627342 3.55593e-19)
(1.17831 -0.03998 3.67469e-19)
(-0.00858065 -0.0268224 -2.84708e-18)
(-0.0193251 0.00479964 -1.12222e-18)
(-0.0320527 0.0312542 -4.05277e-19)
(-0.0467589 0.0536965 -1.45461e-19)
(-0.0623558 0.0731573 0)
(-0.0785325 0.0900176 2.10773e-19)
(-0.0954463 0.104452 -9.63185e-20)
(-0.113296 0.116636 0)
(-0.132222 0.126818 -8.51681e-20)
(-0.152298 0.13531 0)
(-0.173547 0.142448 1.55771e-19)
(-0.195954 0.148554 0)
(-0.219481 0.153909 7.23497e-20)
(-0.244081 0.158747 1.40011e-19)
(-0.269708 0.163253 -1.3579e-19)
(-0.296316 0.167568 0)
(-0.323861 0.171802 -1.28593e-19)
(-0.352296 0.176029 0)
(-0.381565 0.180297 0)
(-0.411598 0.184618 -1.20476e-19)
(-0.4423 0.188963 0)
(-0.473547 0.193241 2.10556e-23)
(-0.505189 0.197295 0)
(-0.537071 0.200923 0)
(-0.569074 0.203914 -8.36305e-23)
(-0.601151 0.206109 -1.0711e-19)
(-0.633304 0.207562 -1.04183e-19)
(-0.665467 0.208608 -1.01471e-19)
(-0.697391 0.209483 0)
(-0.728851 0.21018 -1.92388e-19)
(-0.759749 0.210563 0)
(-0.790139 0.210356 -9.18829e-20)
(-0.820249 0.209398 0)
(-0.850268 0.207861 0)
(-0.880174 0.205987 8.57514e-20)
(-0.909985 0.203674 0)
(-0.939857 0.20112 -8.17986e-20)
(-0.969767 0.198667 -4.29022e-23)
(-0.999547 0.196364 1.56738e-19)
(-1.02914 0.194073 -1.53496e-19)
(-1.05859 0.191786 0)
(-1.08792 0.189511 0)
(-1.11715 0.187252 -7.23305e-20)
(-1.14628 0.185006 0)
(-1.17532 0.182771 -6.98486e-20)
(-1.20426 0.180541 6.86379e-20)
(-1.23312 0.178314 6.74748e-20)
(-1.26188 0.176083 0)
(-1.29054 0.173845 -6.52776e-20)
(-1.3191 0.171594 -6.42375e-20)
(-1.34754 0.169324 1.26314e-19)
(-1.37587 0.16703 -6.22603e-20)
(-1.40406 0.164705 -6.13183e-20)
(-1.4321 0.162341 0)