# f_l  POINT_DATA 1091
#  x  y  z  f_l
0.0793343 0.00166894 1.26857e-19 0.5
0.0793029 0.00222 0.0025 0.5
0.0793029 0.00222 -0.0025 0.5
0.0793313 0.00178794 0.0025 0.5
0.0793313 0.00178794 -0.0025 0.5
0.0793431 0.00155387 0.0025 0.5
0.0793431 0.00155387 -0.0025 0.5
0.079355 0.00111 0.0025 0.5
0.079355 0.00111 -0.0025 0.5
0.0793595 0.00277392 8.16461e-20 0.5
0.0793175 0.00333 0.0025 0.5
0.0793175 0.00333 -0.0025 0.5
0.0793577 0.00267843 0.0025 0.5
0.0793577 0.00267843 -0.0025 0.5
0.0793609 0.00286835 0.0025 0.5
0.0793609 0.00286835 -0.0025 0.5
0.0793734 0.00388454 3.34082e-19 0.5
0.0793247 0.00444 0.0025 0.5
0.0793247 0.00444 -0.0025 0.5
0.0793726 0.00380336 0.0025 0.5
0.0793726 0.00380336 -0.0025 0.5
0.079374 0.00396525 0.0025 0.5
0.079374 0.00396525 -0.0025 0.5
0.079519 0.000694108 1.68568e-19 0.5
0.0793829 0.00499467 2.55872e-19 0.5
0.0793305 0.00555 0.0025 0.5
0.0793305 0.00555 -0.0025 0.5
0.0795307 0.000631224 0.0025 0.5
0.0795307 0.000631224 -0.0025 0.5
0.0793824 0.00492306 0.0025 0.5
0.0793824 0.00492306 -0.0025 0.5
0.0793833 0.00506595 0.0025 0.5
0.0793833 0.00506595 -0.0025 0.5
0.0793921 0.00610469 1.9575e-21 0.5
0.0793366 0.00666 0.0025 0.5
0.0793366 0.00666 -0.0025 0.5
0.0793916 0.00604232 0.0025 0.5
0.0793916 0.00604232 -0.0025 0.5
0.0793925 0.00616677 0.0025 0.5
0.0793925 0.00616677 -0.0025 0.5
0.0794025 0.0072147 6.95665e-22 0.5
0.0793437 0.00777 0.0025 0.5
0.0793437 0.00777 -0.0025 0.5
0.079402 0.00716272 0.0025 0.5
0.079402 0.00716272 -0.0025 0.5
0.0794029 0.00726638 0.0025 0.5
0.0794029 0.00726638 -0.0025 0.5
0.0794148 0.00832472 1.63619e-19 0.5
0.0794144 0.00828503 0.0025 0.5
0.0794144 0.00828503 -0.0025 0.5
0.0793522 0.00888 0.0025 0.5
0.0793522 0.00888 -0.0025 0.5
0.0794152 0.00836414 0.0025 0.5
0.0794152 0.00836414 -0.0025 0.5
0.0794294 0.00943479 9.84987e-20 0.5
0.0794291 0.00940979 -0.0025 0.5
0.0794291 0.00940979 0.0025 0.5
0.0793624 0.00999 0.0025 0.5
0.0793624 0.00999 -0.0025 0.5
0.0794298 0.00945957 -0.0025 0.5
0.0794298 0.00945957 0.0025 0.5
0.08001 0.000739062 -0.0025 0.5
0.08001 0.000739062 0.0025 0.5
0.0794475 0.0105715 5.81753e-20 0.5
0.0794469 0.0105376 0.0025 0.5
0.0794469 0.0105376 -0.0025 0.5
0.0794472 0.0105522 0.0025 0.5
0.0794472 0.0105522 -0.0025 0.5
0.0793745 0.0111 0.0025 0.5
0.0793745 0.0111 -0.0025 0.5
0.0794646 0.0116551 -5.64689e-21 0.5
0.0802878 0.0002775 0.0025 0.5
0.0802878 0.0002775 -0.0025 0.5
0.0794645 0.0116449 0.0025 0.5
0.0794645 0.0116449 -0.0025 0.5
0.0794647 0.0116653 0.0025 0.5
0.0794647 0.0116653 -0.0025 0.5
0.079388 0.01221 0.0025 0.5
0.079388 0.01221 -0.0025 0.5
0.079483 0.0127652 8.55052e-20 0.5
0.0794828 0.0127367 0.0025 0.5
0.0794828 0.0127367 -0.0025 0.5
0.0794833 0.0127939 0.0025 0.5
0.0794833 0.0127939 -0.0025 0.5
0.0794029 0.01332 0.0025 0.5
0.0794029 0.01332 -0.0025 0.5
0.0805656 0.0002775 1.15842e-19 0.5
0.0795042 0.0138753 -5.29813e-19 0.5
0.0795037 0.0138257 0.0025 0.5
0.0795037 0.0138257 -0.0025 0.5
0.0795047 0.0139253 0.0025 0.5
0.0795047 0.0139253 -0.0025 0.5
0.0794196 0.01443 0.0025 0.5
0.0794196 0.01443 -0.0025 0.5
0.0808434 0.0002775 0.0025 0.5
0.0808434 0.0002775 -0.0025 0.5
0.0795262 0.0149855 5.7745e-19 0.5
0.0795255 0.014914 0.0025 0.5
0.0795255 0.014914 -0.0025 0.5
0.0795269 0.0150574 0.0025 0.5
0.0795269 0.0150574 -0.0025 0.5
0.0794363 0.01554 0.0025 0.5
0.0794363 0.01554 -0.0025 0.5
0.0795454 0.0160956 4.47421e-20 0.5
0.0811213 0.000555 -0.0025 0.5
0.0811213 0.000555 0.0025 0.5
0.0795446 0.0160049 0.0025 0.5
0.0795446 0.0160049 -0.0025 0.5
0.0795463 0.0161868 0.0025 0.5
0.0795463 0.0161868 -0.0025 0.5
0.0794532 0.01665 0.0025 0.5
0.0794532 0.01665 -0.0025 0.5
0.0795657 0.0172058 1.55662e-19 0.5
0.0795646 0.0170949 0.0025 0.5
0.0795646 0.0170949 -0.0025 0.5
0.0813991 0.0002775 0.0025 0.5
0.0813991 0.0002775 -0.0025 0.5
0.0795669 0.0173174 0.0025 0.5
0.0795669 0.0173174 -0.0025 0.5
0.0794713 0.01776 0.0025 0.5
0.0794713 0.01776 -0.0025 0.5
0.0795867 0.018316 2.32596e-19 0.5
0.0795853 0.0181842 0.0025 0.5
0.0795853 0.0181842 -0.0025 0.5
0.0816769 0.0002775 9.5745e-20 0.5
0.0795882 0.0184486 -0.0025 0.5
0.0795882 0.0184486 0.0025 0.5
0.0794905 0.01887 0.0025 0.5
0.0794905 0.01887 -0.0025 0.5
0.0796081 0.0194262 1.23376e-19 0.5
0.0796064 0.0192732 0.0025 0.5
0.0796064 0.0192732 -0.0025 0.5
0.0819547 0.0002775 0.0025 0.5
0.0819547 0.0002775 -0.0025 0.5
0.0796099 0.0195803 0.0025 0.5
0.0796099 0.0195803 -0.0025 0.5
0.0795105 0.01998 0.0025 0.5
0.0795105 0.01998 -0.0025 0.5
0.0796278 0.0203618 0.0025 0.5
0.0796278 0.0203618 -0.0025 0.5
0.0796298 0.0205364 1.3278e-19 0.5
0.0822325 0.000555 -0.0025 0.5
0.0822325 0.000555 0.0025 0.5
0.0795314 0.02109 0.0025 0.5
0.0795314 0.02109 -0.0025 0.5
0.0796319 0.0207123 0.0025 0.5
0.0796319 0.0207123 -0.0025 0.5
0.0796494 0.0214502 0.0025 0.5
0.0796494 0.0214502 -0.0025 0.5
0.0796518 0.0216466 6.32297e-20 0.5
0.0825103 0.0002775 0.0025 0.5
0.0825103 0.0002775 -0.0025 0.5
0.0795531 0.0222 0.0025 0.5
0.0795531 0.0222 -0.0025 0.5
0.0796542 0.0218446 0.0025 0.5
0.0796542 0.0218446 -0.0025 0.5
0.0827881 0.0002775 8.32524e-20 0.5
0.079671 0.0225386 0.0025 0.5
0.079671 0.0225386 -0.0025 0.5
0.0796737 0.0227568 2.80024e-20 0.5
0.0795754 0.02331 0.0025 0.5
0.0795754 0.02331 -0.0025 0.5
0.0796764 0.0229768 0.0025 0.5
0.0796764 0.0229768 -0.0025 0.5
0.0830659 0.0002775 0.0025 0.5
0.0830659 0.0002775 -0.0025 0.5
0.0796926 0.0236271 0.0025 0.5
0.0796926 0.0236271 -0.0025 0.5
0.0796955 0.023867 2.93313e-19 0.5
0.0795983 0.02442 0.0025 0.5
0.0795983 0.02442 -0.0025 0.5
0.0796986 0.0241089 0.0025 0.5
0.0796986 0.0241089 -0.0025 0.5
0.0833437 0.000555 -0.0025 0.5
0.0833437 0.000555 0.0025 0.5
0.0797139 0.0247157 -0.0025 0.5
0.0797139 0.0247157 0.0025 0.5
0.0797172 0.0249772 1.41901e-19 0.5
0.0796217 0.02553 0.0025 0.5
0.0796217 0.02553 -0.0025 0.5
0.0797206 0.025241 0.0025 0.5
0.0797206 0.025241 -0.0025 0.5
0.0836216 0.0002775 0.0025 0.5
0.0836216 0.0002775 -0.0025 0.5
0.0797351 0.0258046 0.00126306 0.5
0.0797351 0.0258046 -0.00126306 0.5
0.0797351 0.0258046 0.0025 0.5
0.0797351 0.0258046 -0.0025 0.5
0.0797386 0.026085 -3.30037e-19 0.5
0.0838994 0.0002775 3.228e-22 0.5
0.0797423 0.0263726 -0.0012957 0.5
0.0797423 0.0263726 0.0012957 0.5
0.0796451 0.02664 0.0025 0.5
0.0796451 0.02664 -0.0025 0.5
0.0797423 0.0263726 0.0025 0.5
0.0797423 0.0263726 -0.0025 0.5
0.0797556 0.0268941 -0.00135534 0.5
0.0797556 0.0268941 0.00135534 0.5
0.0797556 0.0268941 0.0025 0.5
0.0797556 0.0268941 -0.0025 0.5
0.0841772 0.0002775 0.0025 0.5
0.0841772 0.0002775 -0.0025 0.5
0.0797594 0.027195 1.10322e-19 0.5
0.079763 0.0275033 -0.00138872 0.5
0.079763 0.0275033 0.00138872 0.5
0.079667 0.02775 0.0025 0.5
0.079667 0.02775 -0.0025 0.5
0.079763 0.0275033 0.0025 0.5
0.079763 0.0275033 -0.0025 0.5
0.084455 0.000555 -0.0025 0.5
0.084455 0.000555 0.0025 0.5
0.0797743 0.0279855 -0.00143941 0.5
0.0797743 0.0279855 0.00143941 0.5
0.0797743 0.0279855 0.0025 0.5
0.0797743 0.0279855 -0.0025 0.5
0.079778 0.028305 -7.95527e-19 0.5
0.0847328 0.0002775 0.0025 0.5
0.0847328 0.0002775 -0.0025 0.5
0.0797822 0.0286324 -0.00147495 0.5
0.0797822 0.0286324 0.00147495 0.5
0.0796882 0.02886 0.0025 0.5
0.0796882 0.02886 -0.0025 0.5
0.0797822 0.0286324 0.0025 0.5
0.0797822 0.0286324 -0.0025 0.5
0.0797934 0.0290763 0.00152564 0.5
0.0797934 0.0290763 -0.00152564 0.5
0.0797934 0.0290763 0.0025 0.5
0.0797934 0.0290763 -0.0025 0.5
0.0850106 0.0002775 0 0.5
0.0797977 0.029415 1.05864e-18 0.5
0.0798018 0.0297621 -0.00156341 0.5
0.0798018 0.0297621 0.00156341 0.5
0.0797092 0.02997 0.0025 0.5
0.0797092 0.02997 -0.0025 0.5
0.0798018 0.0297621 0.0025 0.5
0.0798018 0.0297621 -0.0025 0.5
0.0852884 0.0002775 0.0025 0.5
0.0852884 0.0002775 -0.0025 0.5
0.0798114 0.0301683 0.00160658 0.5
0.0798114 0.0301683 -0.00160658 0.5
0.0798114 0.0301683 0.0025 0.5
0.0798114 0.0301683 -0.0025 0.5
0.0798156 0.030525 -3.43742e-20 0.5
0.0798172 0.0308874 -0.00163236 0.5
0.0798172 0.0308874 0.00163236 0.5
0.0797234 0.03108 0.0025 0.5
0.0797234 0.03108 -0.0025 0.5
0.0855663 0.000555 -0.0025 0.5
0.0855663 0.000555 0.0025 0.5
0.0798172 0.0308874 0.0025 0.5
0.0798172 0.0308874 -0.0025 0.5
0.0798205 0.0312693 0.00164714 0.5
0.0798205 0.0312693 -0.00164714 0.5
0.0798205 0.0312693 0.0025 0.5
0.0798205 0.0312693 -0.0025 0.5
0.079822 0.031635 3.13263e-20 0.5
0.0858441 0.0002775 0.0025 0.5
0.0858441 0.0002775 -0.0025 0.5
0.0798615 0.0320416 -0.00183171 0.5
0.0798615 0.0320416 0.00183171 0.5
0.0797981 0.03219 0.0025 0.5
0.0797981 0.03219 -0.0025 0.5
0.0798615 0.0320416 0.0025 0.5
0.0798615 0.0320416 -0.0025 0.5
0.0861219 0.0002775 0 0.5
0.079879 0.0323208 0.00191076 0.5
0.079879 0.0323208 -0.00191076 0.5
0.079879 0.0323208 0.0025 0.5
0.079879 0.0323208 -0.0025 0.5
0.0799234 0.032745 6.25348e-20 0.5
0.0863997 0.0002775 0.0025 0.5
0.0863997 0.0002775 -0.0025 0.5
0.0799429 0.033233 0.00219819 0.5
0.0799429 0.033233 -0.00219819 0.5
0.0799088 0.0333 0.0025 0.5
0.0799088 0.0333 -0.0025 0.5
0.0799429 0.033233 0.0025 0.5
0.0799429 0.033233 -0.0025 0.5
0.0799469 0.033363 0.00221603 0.5
0.0799469 0.033363 -0.00221603 0.5
0.0799469 0.033363 0.0025 0.5
0.0799469 0.033363 -0.0025 0.5
0.0866775 0.000555 -0.0025 0.5
0.0866775 0.000555 0.0025 0.5
0.0799669 0.033855 9.66974e-20 0.5
0.0798553 0.03441 0.0025 0.5
0.0798553 0.03441 -0.0025 0.5
0.0869553 0.0002775 0.0025 0.5
0.0869553 0.0002775 -0.0025 0.5
0.0799147 0.0343148 -0.00207102 0.5
0.0799147 0.0343148 0.00207102 0.5
0.0799147 0.0343148 0.0025 0.5
0.0799147 0.0343148 -0.0025 0.5
0.0799092 0.0345106 0.00204663 0.5
0.0799092 0.0345106 -0.00204663 0.5
0.0799092 0.0345106 0.0025 0.5
0.0799092 0.0345106 -0.0025 0.5
0.079865 0.034965 0 0.5
0.0872331 0.0002775 0 0.5
0.0798759 0.035386 -0.00189647 0.5
0.0798759 0.035386 0.00189647 0.5
0.0798001 0.03552 0.0025 0.5
0.0798001 0.03552 -0.0025 0.5
0.0798759 0.035386 0.0025 0.5
0.0798759 0.035386 -0.0025 0.5
0.0798811 0.0356487 0.00192009 0.5
0.0798811 0.0356487 -0.00192009 0.5
0.0798811 0.0356487 0.0025 0.5
0.0798811 0.0356487 -0.0025 0.5
0.0875109 0.0002775 0.0025 0.5
0.0875109 0.0002775 -0.0025 0.5
0.0798923 0.036075 -2.37354e-21 0.5
0.0877888 0.000555 -0.0025 0.5
0.0877888 0.000555 0.0025 0.5
0.079836 0.03663 0.0025 0.5
0.079836 0.03663 -0.0025 0.5
0.0799009 0.036521 -0.00200891 0.5
0.0799009 0.036521 0.00200891 0.5
0.0799009 0.036521 -0.0025 0.5
0.0799009 0.036521 0.0025 0.5
0.0799033 0.0367366 0.00202003 0.5
0.0799033 0.0367366 -0.00202003 0.5
0.0799033 0.0367366 0.0025 0.5
0.0799033 0.0367366 -0.0025 0.5
0.0880666 0.0002775 -0.00125 0.5
0.0880666 0.0002775 0.00125 0.5
0.0880666 0.0002775 0.0025 0.5
0.0880666 0.0002775 -0.0025 0.5
0.0799121 0.037185 6.47535e-19 0.5
0.0883444 0.0002775 0 0.5
0.0798615 0.03774 -0.0025 0.5
0.0798615 0.03774 0.0025 0.5
0.0799177 0.0376478 0.0020847 0.5
0.0799177 0.0376478 -0.0020847 0.5
0.0799177 0.0376478 0.0025 0.5
0.0799177 0.0376478 -0.0025 0.5
0.0883444 0.00111 0.0025 0.5
0.0883444 0.00111 -0.0025 0.5
0.0883444 0.00222 0.0025 0.5
0.0883444 0.00222 -0.0025 0.5
0.0883444 0.00333 0.0025 0.5
0.0883444 0.00333 -0.0025 0.5
0.0799191 0.0378308 0.00209109 0.5
0.0799191 0.0378308 -0.00209109 0.5
0.0799191 0.0378308 0.0025 0.5
0.0799191 0.0378308 -0.0025 0.5
0.0883444 0.00444 0.0025 0.5
0.0883444 0.00444 -0.0025 0.5
0.0883444 0.00555 0.0025 0.5
0.0883444 0.00555 -0.0025 0.5
0.0886222 0.000555 0 0.5
0.0799248 0.038295 -3.31835e-19 0.5
0.0883444 0.00666 0.0025 0.5
0.0883444 0.00666 -0.0025 0.5
0.0886222 0.0002775 -0.00125 0.5
0.0886222 0.0002775 0.00125 0.5
0.0886222 0.0008325 0.00125 0.5
0.0886222 0.0008325 -0.00125 0.5
0.0886222 0.001665 0 0.5
0.0886222 0.0002775 0.0025 0.5
0.0886222 0.0002775 -0.0025 0.5
0.0886222 0.0008325 0.0025 0.5
0.0886222 0.0008325 -0.0025 0.5
0.0886222 0.002775 0 0.5
0.0886222 0.0013875 0.0025 0.5
0.0886222 0.0013875 -0.0025 0.5
0.0886222 0.0019425 0.0025 0.5
0.0886222 0.0019425 -0.0025 0.5
0.0886222 0.0024975 0.0025 0.5
0.0886222 0.0024975 -0.0025 0.5
0.0886222 0.003885 0 0.5
0.0886222 0.0030525 0.0025 0.5
0.0886222 0.0030525 -0.0025 0.5
0.0883444 0.00777 0.0025 0.5
0.0883444 0.00777 -0.0025 0.5
0.0886222 0.0036075 0.0025 0.5
0.0886222 0.0036075 -0.0025 0.5
0.0886222 0.0041625 0.0025 0.5
0.0886222 0.0041625 -0.0025 0.5
0.0886222 0.004995 -1.81603e-19 0.5
0.0886222 0.0047175 0.0025 0.5
0.0886222 0.0047175 -0.0025 0.5
0.0886222 0.0052725 0.0025 0.5
0.0886222 0.0052725 -0.0025 0.5
0.0883444 0.00888 0.0025 0.5
0.0883444 0.00888 -0.0025 0.5
0.0886222 0.006105 -4.31797e-21 0.5
0.0886222 0.0058275 0.0025 0.5
0.0886222 0.0058275 -0.0025 0.5
0.0798786 0.03885 0.0025 0.5
0.0798786 0.03885 -0.0025 0.5
0.0799288 0.0387689 0.00213477 0.5
0.0799288 0.0387689 -0.00213477 0.5
0.0799288 0.0387689 0.0025 0.5
0.0799288 0.0387689 -0.0025 0.5
0.0886222 0.0063825 0.0025 0.5
0.0886222 0.0063825 -0.0025 0.5
0.0886222 0.007215 3.76366e-21 0.5
0.0886222 0.0069375 -0.0025 0.5
0.0886222 0.0069375 0.0025 0.5
0.0799296 0.0389303 0.00213842 0.5
0.0799296 0.0389303 -0.00213842 0.5
0.0799296 0.0389303 0.0025 0.5
0.0799296 0.0389303 -0.0025 0.5
0.0883444 0.00999 0.0025 0.5
0.0883444 0.00999 -0.0025 0.5
0.0886222 0.0074925 -0.0025 0.5
0.0886222 0.0074925 0.0025 0.5
0.0886222 0.008325 1.10296e-21 0.5
0.0886222 0.0080475 -0.0025 0.5
0.0886222 0.0080475 0.0025 0.5
0.0886222 0.0086025 -0.0025 0.5
0.0886222 0.0086025 0.0025 0.5
0.0883444 0.0111 0.0025 0.5
0.0883444 0.0111 -0.0025 0.5
0.0799337 0.039405 1.64243e-19 0.5
0.0886222 0.009435 1.92878e-21 0.5
0.0886222 0.0091575 0.0025 0.5
0.0886222 0.0091575 -0.0025 0.5
0.0886222 0.0097125 0.0025 0.5
0.0886222 0.0097125 -0.0025 0.5
0.0883444 0.01221 0.0025 0.5
0.0883444 0.01221 -0.0025 0.5
0.0886222 0.010545 3.88923e-21 0.5
0.0886222 0.0102675 0.0025 0.5
0.0886222 0.0102675 -0.0025 0.5
0.0886222 0.0108225 0.0025 0.5
0.0886222 0.0108225 -0.0025 0.5
0.0799364 0.0398865 -0.00216905 0.5
0.0799364 0.0398865 0.00216905 0.5
0.0798904 0.03996 0.0025 0.5
0.0798904 0.03996 -0.0025 0.5
0.0799364 0.0398865 0.0025 0.5
0.0799364 0.0398865 -0.0025 0.5
0.0883444 0.01332 0.0025 0.5
0.0883444 0.01332 -0.0025 0.5
0.0886222 0.0113775 0.0025 0.5
0.0886222 0.0113775 -0.0025 0.5
0.0886222 0.011655 2.78619e-21 0.5
0.0799369 0.0400331 0.00217089 0.5
0.0799369 0.0400331 -0.00217089 0.5
0.0799369 0.0400331 0.0025 0.5
0.0799369 0.0400331 -0.0025 0.5
0.0886222 0.0119325 0.0025 0.5
0.0886222 0.0119325 -0.0025 0.5
0.0886222 0.0124875 -0.0025 0.5
0.0886222 0.0124875 0.0025 0.5
0.0886222 0.012765 1.81655e-19 0.5
0.0883444 0.01443 0.0025 0.5
0.0883444 0.01443 -0.0025 0.5
0.0886222 0.0130425 -0.0025 0.5
0.0886222 0.0130425 0.0025 0.5
0.0799396 0.040515 4.73317e-20 0.5
0.0886222 0.0135975 0.0025 0.5
0.0886222 0.0135975 -0.0025 0.5
0.0886222 0.013875 0 0.5
0.0883444 0.01554 0.0025 0.5
0.0883444 0.01554 -0.0025 0.5
0.0886222 0.0141525 0.0025 0.5
0.0886222 0.0141525 -0.0025 0.5
0.0886222 0.0147075 -0.0025 0.5
0.0886222 0.0147075 0.0025 0.5
0.0799424 0.0410025 -0.00219575 0.5
0.0799424 0.0410025 0.00219575 0.5
0.0799 0.04107 0.0025 0.5
0.0799 0.04107 -0.0025 0.5
0.0799424 0.0410025 0.0025 0.5
0.0799424 0.0410025 -0.0025 0.5
0.0886222 0.014985 7.52748e-21 0.5
0.0799428 0.0411371 0.00219785 0.5
0.0799428 0.0411371 -0.00219785 0.5
0.0883444 0.01665 0.0025 0.5
0.0883444 0.01665 -0.0025 0.5
0.0799428 0.0411371 0.0025 0.5
0.0799428 0.0411371 -0.0025 0.5
0.0886222 0.0152625 -0.0025 0.5
0.0886222 0.0152625 0.0025 0.5
0.0886222 0.0158175 0.0025 0.5
0.0886222 0.0158175 -0.0025 0.5
0.0886222 0.016095 0 0.5
0.0799456 0.041625 2.12601e-19 0.5
0.0883444 0.01776 0.0025 0.5
0.0883444 0.01776 -0.0025 0.5
0.0886222 0.0163725 0.0025 0.5
0.0886222 0.0163725 -0.0025 0.5
0.0886222 0.0169275 0.0025 0.5
0.0886222 0.0169275 -0.0025 0.5
0.0886222 0.017205 0 0.5
0.0886222 0.0174825 0.0025 0.5
0.0886222 0.0174825 -0.0025 0.5
0.0883444 0.01887 0.0025 0.5
0.0883444 0.01887 -0.0025 0.5
0.0799478 0.0421179 -0.00222022 0.5
0.0799478 0.0421179 0.00222022 0.5
0.0799085 0.04218 -0.0025 0.5
0.0799085 0.04218 0.0025 0.5
0.0799478 0.0421179 -0.0025 0.5
0.0799478 0.0421179 0.0025 0.5
0.0799482 0.0422418 0.00222175 0.5
0.0799482 0.0422418 -0.00222175 0.5
0.0799482 0.0422418 0.0025 0.5
0.0799482 0.0422418 -0.0025 0.5
0.0886222 0.0180375 0.0025 0.5
0.0886222 0.0180375 -0.0025 0.5
0.0886222 0.018315 -4.24739e-19 0.5
0.0886222 0.0185925 0.0025 0.5
0.0886222 0.0185925 -0.0025 0.5
0.0883444 0.01998 0.0025 0.5
0.0883444 0.01998 -0.0025 0.5
0.0799504 0.042735 2.93332e-19 0.5
0.0886222 0.0191475 0.0025 0.5
0.0886222 0.0191475 -0.0025 0.5
0.0886222 0.019425 2.54579e-19 0.5
0.0886222 0.0197025 0.0025 0.5
0.0886222 0.0197025 -0.0025 0.5
0.0883444 0.02109 0.0025 0.5
0.0883444 0.02109 -0.0025 0.5
0.0799508 0.0432309 0.00223383 0.5
0.0799508 0.0432309 -0.00223383 0.5
0.0799131 0.04329 0.0025 0.5
0.0799131 0.04329 -0.0025 0.5
0.0799508 0.0432309 0.0025 0.5
0.0799508 0.0432309 -0.0025 0.5
0.0886222 0.0202575 0.0025 0.5
0.0886222 0.0202575 -0.0025 0.5
0.0886222 0.020535 -4.2863e-21 0.5
0.0799508 0.0433491 -0.00223364 0.5
0.0799508 0.0433491 0.00223364 0.5
0.0799508 0.0433491 -0.0025 0.5
0.0799508 0.0433491 0.0025 0.5
0.0886222 0.0208125 0.0025 0.5
0.0886222 0.0208125 -0.0025 0.5
0.0883444 0.0222 0.0025 0.5
0.0883444 0.0222 -0.0025 0.5
0.0799513 0.043845 1.6677e-19 0.5
0.0886222 0.0213675 0.0025 0.5
0.0886222 0.0213675 -0.0025 0.5
0.0886222 0.021645 -2.44648e-21 0.5
0.0886222 0.0219225 0.0025 0.5
0.0886222 0.0219225 -0.0025 0.5
0.0883444 0.02331 0.0025 0.5
0.0883444 0.02331 -0.0025 0.5
0.0799507 0.0443408 -0.00223336 0.5
0.0799507 0.0443408 0.00223336 0.5
0.079913 0.0444 0.0025 0.5
0.079913 0.0444 -0.0025 0.5
0.0799507 0.0443408 0.0025 0.5
0.0799507 0.0443408 -0.0025 0.5
0.0886222 0.0224775 0.0025 0.5
0.0886222 0.0224775 -0.0025 0.5
0.0886222 0.022755 -2.49561e-19 0.5
0.0799505 0.0444594 0.00223241 0.5
0.0799505 0.0444594 -0.00223241 0.5
0.0799505 0.0444594 0.0025 0.5
0.0799505 0.0444594 -0.0025 0.5
0.0886222 0.0230325 0.0025 0.5
0.0886222 0.0230325 -0.0025 0.5
0.0883444 0.02442 0.0025 0.5
0.0883444 0.02442 -0.0025 0.5
0.07995 0.044955 0 0.5
0.0886222 0.0235875 0.0025 0.5
0.0886222 0.0235875 -0.0025 0.5
0.0886222 0.023865 4.33092e-19 0.5
0.0886222 0.0241425 0.0025 0.5
0.0886222 0.0241425 -0.0025 0.5
0.0799485 0.0454486 0.00222326 0.5
0.0799485 0.0454486 -0.00222326 0.5
0.0883444 0.02553 0.0025 0.5
0.0883444 0.02553 -0.0025 0.5
0.0799094 0.04551 0.0025 0.5
0.0799094 0.04551 -0.0025 0.5
0.0799485 0.0454486 0.0025 0.5
0.0799485 0.0454486 -0.0025 0.5
0.0886222 0.0246975 -0.0025 0.5
0.0886222 0.0246975 0.0025 0.5
0.0799481 0.0455718 0.00222171 0.5
0.0799481 0.0455718 -0.00222171 0.5
0.0799481 0.0455718 0.0025 0.5
0.0799481 0.0455718 -0.0025 0.5
0.0886222 0.024975 1.19177e-21 0.5
0.0886222 0.0252525 0.0025 0.5
0.0886222 0.0252525 -0.0025 0.5
0.0799467 0.046065 1.50082e-19 0.5
0.0883444 0.02664 0.0025 0.5
0.0883444 0.02664 -0.0025 0.5
0.0886222 0.0258075 0.0025 0.5
0.0886222 0.0258075 -0.0025 0.5
0.0886222 0.026085 9.22105e-21 0.5
0.0886222 0.0263625 0.0025 0.5
0.0886222 0.0263625 -0.0025 0.5
0.0799444 0.0465545 -0.00220494 0.5
0.0799444 0.0465545 0.00220494 0.5
0.0799029 0.04662 0.0025 0.5
0.0799029 0.04662 -0.0025 0.5
0.0799444 0.0465545 -0.0025 0.5
0.0799444 0.0465545 0.0025 0.5
0.0799439 0.046686 -0.00220268 0.5
0.0799439 0.046686 0.00220268 0.5
0.0799439 0.046686 -0.0025 0.5
0.0799439 0.046686 0.0025 0.5
0.0883444 0.02775 0.0025 0.5
0.0883444 0.02775 -0.0025 0.5
0.0886222 0.0269175 0.0025 0.5
0.0886222 0.0269175 -0.0025 0.5
0.0886222 0.027195 1.2044e-20 0.5
0.0886222 0.0274725 0.0025 0.5
0.0886222 0.0274725 -0.0025 0.5
0.0799417 0.047175 -9.34566e-19 0.5
0.0883444 0.02886 0.0025 0.5
0.0883444 0.02886 -0.0025 0.5
0.0886222 0.0280275 0.0025 0.5
0.0886222 0.0280275 -0.0025 0.5
0.0886222 0.028305 -8.22717e-21 0.5
0.0799387 0.0476588 -0.0021794 0.5
0.0799387 0.0476588 0.0021794 0.5
0.0798939 0.04773 0.0025 0.5
0.0798939 0.04773 -0.0025 0.5
0.0799387 0.0476588 -0.0025 0.5
0.0799387 0.0476588 0.0025 0.5
0.0886222 0.0285825 0.0025 0.5
0.0886222 0.0285825 -0.0025 0.5
0.0799381 0.0478019 0.00217632 0.5
0.0799381 0.0478019 -0.00217632 0.5
0.0799381 0.0478019 0.0025 0.5
0.0799381 0.0478019 -0.0025 0.5
0.0886222 0.0291375 0.0025 0.5
0.0886222 0.0291375 -0.0025 0.5
0.0883444 0.02997 0.0025 0.5
0.0883444 0.02997 -0.0025 0.5
0.0886222 0.029415 -6.85063e-19 0.5
0.0799351 0.048285 1.19082e-18 0.5
0.0886222 0.0296925 0.0025 0.5
0.0886222 0.0296925 -0.0025 0.5
0.0799316 0.0487617 -0.00214711 0.5
0.0799316 0.0487617 0.00214711 0.5
0.0798825 0.04884 0.0025 0.5
0.0798825 0.04884 -0.0025 0.5
0.0799316 0.0487617 0.0025 0.5
0.0799316 0.0487617 -0.0025 0.5
0.0886222 0.0302475 0.0025 0.5
0.0886222 0.0302475 -0.0025 0.5
0.0883444 0.03108 0.0025 0.5
0.0883444 0.03108 -0.0025 0.5
0.0886222 0.030525 6.22217e-19 0.5
0.0799307 0.0489192 0.00214314 0.5
0.0799307 0.0489192 -0.00214314 0.5
0.0799307 0.0489192 0.0025 0.5
0.0799307 0.0489192 -0.0025 0.5
0.0886222 0.0308025 0.0025 0.5
0.0886222 0.0308025 -0.0025 0.5
0.0799271 0.049395 8.56532e-20 0.5
0.0886222 0.0313575 0.0025 0.5
0.0886222 0.0313575 -0.0025 0.5
0.0883444 0.03219 0.0025 0.5
0.0883444 0.03219 -0.0025 0.5
0.0886222 0.031635 -3.88923e-21 0.5
0.0799229 0.049863 0.00210826 0.5
0.0799229 0.049863 -0.00210826 0.5
0.0886222 0.0319125 0.0025 0.5
0.0886222 0.0319125 -0.0025 0.5
0.0799229 0.049863 0.0025 0.5
0.0799229 0.049863 -0.0025 0.5
0.0798689 0.04995 -0.0025 0.5
0.0798689 0.04995 0.0025 0.5
0.0799219 0.050038 0.0021034 0.5
0.0799219 0.050038 -0.0021034 0.5
0.0799219 0.050038 0.0025 0.5
0.0799219 0.050038 -0.0025 0.5
0.0886222 0.0324675 0.0025 0.5
0.0886222 0.0324675 -0.0025 0.5
0.0883444 0.0333 0.0025 0.5
0.0883444 0.0333 -0.0025 0.5
0.0886222 0.032745 0 0.5
0.0799177 0.050505 1.30519e-18 0.5
0.0886222 0.0330225 0.0025 0.5
0.0886222 0.0330225 -0.0025 0.5
0.079913 0.0509631 -0.00206342 0.5
0.079913 0.0509631 0.00206342 0.5
0.0886222 0.0335775 0.0025 0.5
0.0886222 0.0335775 -0.0025 0.5
0.079913 0.0509631 -0.0025 0.5
0.079913 0.0509631 0.0025 0.5
0.0798533 0.05106 0.0025 0.5
0.0798533 0.05106 -0.0025 0.5
0.0883444 0.03441 0.0025 0.5
0.0883444 0.03441 -0.0025 0.5
0.0886222 0.033855 0 0.5
0.0799117 0.0511582 0.00205772 0.5
0.0799117 0.0511582 -0.00205772 0.5
0.0799117 0.0511582 0.0025 0.5
0.0799117 0.0511582 -0.0025 0.5
0.0886222 0.0341325 0.0025 0.5
0.0886222 0.0341325 -0.0025 0.5
0.079907 0.051615 -1.52059e-18 0.5
0.0886222 0.0346875 0.0025 0.5
0.0886222 0.0346875 -0.0025 0.5
0.0883444 0.03552 0.0025 0.5
0.0883444 0.03552 -0.0025 0.5
0.0886222 0.034965 -3.39789e-22 0.5
0.0799024 0.0520625 -0.00201577 0.5
0.0799024 0.0520625 0.00201577 0.5
0.0799024 0.0520625 0.0025 0.5
0.0799024 0.0520625 -0.0025 0.5
0.0798369 0.05217 0.0025 0.5
0.0798369 0.05217 -0.0025 0.5
0.0886222 0.0352425 0.0025 0.5
0.0886222 0.0352425 -0.0025 0.5
0.079901 0.0522789 0.00200934 0.5
0.079901 0.0522789 -0.00200934 0.5
0.079901 0.0522789 0.0025 0.5
0.079901 0.0522789 -0.0025 0.5
0.0886222 0.0357975 0.0025 0.5
0.0886222 0.0357975 -0.0025 0.5
0.0883444 0.03663 0.0025 0.5
0.0883444 0.03663 -0.0025 0.5
0.0886222 0.036075 1.76716e-21 0.5
0.0798963 0.052725 8.03941e-19 0.5
0.0886222 0.0363525 0.0025 0.5
0.0886222 0.0363525 -0.0025 0.5
0.0798919 0.0531621 -0.00196871 0.5
0.0798919 0.0531621 0.00196871 0.5
0.0798919 0.0531621 0.0025 0.5
0.0798919 0.0531621 -0.0025 0.5
0.0798208 0.05328 -0.0025 0.5
0.0798208 0.05328 0.0025 0.5
0.0886222 0.0369075 0.0025 0.5
0.0886222 0.0369075 -0.0025 0.5
0.0883444 0.03774 0.0025 0.5
0.0883444 0.03774 -0.0025 0.5
0.0886222 0.037185 -6.78638e-19 0.5
0.0798904 0.0533995 0.00196178 0.5
0.0798904 0.0533995 -0.00196178 0.5
0.0798904 0.0533995 0.0025 0.5
0.0798904 0.0533995 -0.0025 0.5
0.0886222 0.0374625 0.0025 0.5
0.0886222 0.0374625 -0.0025 0.5
0.079886 0.053835 -6.96594e-19 0.5
0.0886222 0.0380175 -0.0025 0.5
0.0886222 0.0380175 0.0025 0.5
0.0883444 0.03885 0.0025 0.5
0.0883444 0.03885 -0.0025 0.5
0.0886222 0.038295 1.29532e-18 0.5
0.0798819 0.0542621 -0.00192366 0.5
0.0798819 0.0542621 0.00192366 0.5
0.0798819 0.0542621 0.0025 0.5
0.0798819 0.0542621 -0.0025 0.5
0.0798055 0.05439 0.0025 0.5
0.0798055 0.05439 -0.0025 0.5
0.0886222 0.0385725 -0.0025 0.5
0.0886222 0.0385725 0.0025 0.5
0.0798803 0.0545196 -0.00191626 0.5
0.0798803 0.0545196 0.00191626 0.5
0.0798803 0.0545196 0.0025 0.5
0.0798803 0.0545196 -0.0025 0.5
0.0886222 0.0391275 -0.0025 0.5
0.0886222 0.0391275 0.0025 0.5
0.0798762 0.054945 9.21792e-19 0.5
0.0886222 0.039405 -6.22645e-19 0.5
0.0883444 0.03996 0.0025 0.5
0.0883444 0.03996 -0.0025 0.5
0.0886222 0.0396825 -0.0025 0.5
0.0886222 0.0396825 0.0025 0.5
0.079872 0.0553621 -0.00187901 0.5
0.079872 0.0553621 0.00187901 0.5
0.079872 0.0553621 0.0025 0.5
0.079872 0.0553621 -0.0025 0.5
0.0797902 0.0555 0.0025 0.5
0.0797902 0.0555 -0.0025 0.5
0.0798695 0.0556403 0.00186804 0.5
0.0798695 0.0556403 -0.00186804 0.5
0.0886222 0.0402375 0.0025 0.5
0.0886222 0.0402375 -0.0025 0.5
0.0798695 0.0556403 0.0025 0.5
0.0798695 0.0556403 -0.0025 0.5
0.0886222 0.040515 -2.0701e-21 0.5
0.0883444 0.04107 0.0025 0.5
0.0883444 0.04107 -0.0025 0.5
0.0798654 0.056055 -3.264e-18 0.5
0.0886222 0.0407925 0.0025 0.5
0.0886222 0.0407925 -0.0025 0.5
0.0798613 0.0564615 -0.00183104 0.5
0.0798613 0.0564615 0.00183104 0.5
0.0886222 0.0413475 0.0025 0.5
0.0886222 0.0413475 -0.0025 0.5
0.0798613 0.0564615 0.0025 0.5
0.0798613 0.0564615 -0.0025 0.5
0.0797747 0.05661 0.0025 0.5
0.0797747 0.05661 -0.0025 0.5
0.0886222 0.041625 0 0.5
0.0883444 0.04218 0.0025 0.5
0.0883444 0.04218 -0.0025 0.5
0.0798586 0.0567612 -0.00181888 0.5
0.0798586 0.0567612 0.00181888 0.5
0.0798586 0.0567612 0.0025 0.5
0.0798586 0.0567612 -0.0025 0.5
0.0886222 0.0419025 0.0025 0.5
0.0886222 0.0419025 -0.0025 0.5
0.0798546 0.057165 1.8077e-18 0.5
0.0886222 0.0424575 0.0025 0.5
0.0886222 0.0424575 -0.0025 0.5
0.0886222 0.042735 0 0.5
0.0883444 0.04329 0.0025 0.5
0.0883444 0.04329 -0.0025 0.5
0.0798529 0.057563 -0.00179297 0.5
0.0798529 0.057563 0.00179297 0.5
0.0798529 0.057563 0.0025 0.5
0.0798529 0.057563 -0.0025 0.5
0.0797632 0.05772 0.0025 0.5
0.0797632 0.05772 -0.0025 0.5
0.0886222 0.0430125 0.0025 0.5
0.0886222 0.0430125 -0.0025 0.5
0.07985 0.0578798 -0.0017803 0.5
0.07985 0.0578798 0.0017803 0.5
0.07985 0.0578798 -0.0025 0.5
0.07985 0.0578798 0.0025 0.5
0.0886222 0.0435675 0.0025 0.5
0.0886222 0.0435675 -0.0025 0.5
0.0798483 0.058275 3.49387e-18 0.5
0.0886222 0.043845 0 0.5
0.0883444 0.0444 0.0025 0.5
0.0883444 0.0444 -0.0025 0.5
0.0886222 0.0441225 0.0025 0.5
0.0886222 0.0441225 -0.0025 0.5
0.0798468 0.058667 -0.00176555 0.5
0.0798468 0.058667 0.00176555 0.5
0.0798468 0.058667 0.0025 0.5
0.0798468 0.058667 -0.0025 0.5
0.0797559 0.05883 0.0025 0.5
0.0797559 0.05883 -0.0025 0.5
0.0886222 0.0446775 0.0025 0.5
0.0886222 0.0446775 -0.0025 0.5
0.0798442 0.0589956 0.00175408 0.5
0.0798442 0.0589956 -0.00175408 0.5
0.0798442 0.0589956 0.0025 0.5
0.0798442 0.0589956 -0.0025 0.5
0.0886222 0.044955 0 0.5
0.0883444 0.04551 0.0025 0.5
0.0883444 0.04551 -0.0025 0.5
0.0798427 0.059385 -5.86923e-19 0.5
0.0886222 0.0452325 0.0025 0.5
0.0886222 0.0452325 -0.0025 0.5
0.0798415 0.0597716 -0.00174165 0.5
0.0798415 0.0597716 0.00174165 0.5
0.0798415 0.0597716 0.0025 0.5
0.0798415 0.0597716 -0.0025 0.5
0.0886222 0.0457875 0.0025 0.5
0.0886222 0.0457875 -0.0025 0.5
0.0797496 0.05994 -0.0025 0.5
0.0797496 0.05994 0.0025 0.5
0.0886222 0.046065 -6.78387e-19 0.5
0.0883444 0.04662 0.0025 0.5
0.0883444 0.04662 -0.0025 0.5
0.0798393 0.0601105 0.00173179 0.5
0.0798393 0.0601105 -0.00173179 0.5
0.0798393 0.0601105 0.0025 0.5
0.0798393 0.0601105 -0.0025 0.5
0.0886222 0.0463425 0.0025 0.5
0.0886222 0.0463425 -0.0025 0.5
0.079838 0.060495 9.80859e-19 0.5
0.0886222 0.0468975 0.0025 0.5
0.0886222 0.0468975 -0.0025 0.5
0.0886222 0.047175 6.78675e-19 0.5
0.079837 0.0608772 -0.00172141 0.5
0.079837 0.0608772 0.00172141 0.5
0.079837 0.0608772 -0.0025 0.5
0.079837 0.0608772 0.0025 0.5
0.0883444 0.04773 0.0025 0.5
0.0883444 0.04773 -0.0025 0.5
0.0797443 0.06105 -0.0025 0.5
0.0797443 0.06105 0.0025 0.5
0.0886222 0.0474525 0.0025 0.5
0.0886222 0.0474525 -0.0025 0.5
0.079835 0.0612248 0.00171271 0.5
0.079835 0.0612248 -0.00171271 0.5
0.079835 0.0612248 0.0025 0.5
0.079835 0.0612248 -0.0025 0.5
0.0886222 0.0480075 0.0025 0.5
0.0886222 0.0480075 -0.0025 0.5
0.079834 0.061605 -1.51093e-18 0.5
0.0886222 0.048285 0 0.5
0.0883444 0.04884 0.0025 0.5
0.0883444 0.04884 -0.0025 0.5
0.0798329 0.0619831 -0.00170313 0.5
0.0798329 0.0619831 0.00170313 0.5
0.0886222 0.0485625 0.0025 0.5
0.0886222 0.0485625 -0.0025 0.5
0.0798329 0.0619831 0.0025 0.5
0.0798329 0.0619831 -0.0025 0.5
0.0797394 0.06216 0.0025 0.5
0.0797394 0.06216 -0.0025 0.5
0.0798309 0.0623389 0.00169406 0.5
0.0798309 0.0623389 -0.00169406 0.5
0.0798309 0.0623389 0.0025 0.5
0.0798309 0.0623389 -0.0025 0.5
0.0886222 0.0491175 0.0025 0.5
0.0886222 0.0491175 -0.0025 0.5
0.0886222 0.049395 0 0.5
0.0798298 0.062715 2.3388e-19 0.5
0.0883444 0.04995 0.0025 0.5
0.0883444 0.04995 -0.0025 0.5
0.0886222 0.0496725 0.0025 0.5
0.0886222 0.0496725 -0.0025 0.5
0.0798283 0.0630885 -0.0016824 0.5
0.0798283 0.0630885 0.0016824 0.5
0.0798283 0.0630885 0.0025 0.5
0.0798283 0.0630885 -0.0025 0.5
0.0797333 0.06327 0.0025 0.5
0.0797333 0.06327 -0.0025 0.5
0.0886222 0.0502275 0.0025 0.5
0.0886222 0.0502275 -0.0025 0.5
0.0798253 0.0634545 -0.00166891 0.5
0.0798253 0.0634545 0.00166891 0.5
0.0886222 0.050505 0 0.5
0.0798253 0.0634545 0.0025 0.5
0.0798253 0.0634545 -0.0025 0.5
0.0883444 0.05106 0.0025 0.5
0.0883444 0.05106 -0.0025 0.5
0.0886222 0.0507825 0.0025 0.5
0.0886222 0.0507825 -0.0025 0.5
0.0798238 0.063825 2.54392e-19 0.5
0.0798209 0.0641911 0.00164909 0.5
0.0798209 0.0641911 -0.00164909 0.5
0.0886222 0.0513375 0.0025 0.5
0.0886222 0.0513375 -0.0025 0.5
0.0798209 0.0641911 0.0025 0.5
0.0798209 0.0641911 -0.0025 0.5
0.0797226 0.06438 0.0025 0.5
0.0797226 0.06438 -0.0025 0.5
0.0886222 0.051615 1.3031e-18 0.5
0.0883444 0.05217 -0.0025 0.5
0.0883444 0.05217 0.0025 0.5
0.0798148 0.064575 0.00162167 0.5
0.0798148 0.064575 -0.00162167 0.5
0.0798148 0.064575 0.0025 0.5
0.0798148 0.064575 -0.0025 0.5
0.0886222 0.0518925 0.0025 0.5
0.0886222 0.0518925 -0.0025 0.5
0.0798119 0.064935 2.29358e-19 0.5
0.0886222 0.0524475 -0.0025 0.5
0.0886222 0.0524475 0.0025 0.5
0.0886222 0.052725 -1.30103e-18 0.5
0.0798485 0.0653287 -0.0017734 0.5