# f_l  POINT_DATA 1137
#  x  y  z  f_l
0.0766806 0.001665 8.47202e-20 0.5
0.0767074 0.002775 1.53784e-19 0.5
0.0766934 0.00220289 -0.00242293 0.5
0.0766934 0.00220289 0.00242293 0.5
0.0766945 0.00223822 -0.00241793 0.5
0.0766945 0.00223822 0.00241793 0.5
0.0766934 0.00220289 0.0025 0.5
0.0766934 0.00220289 -0.0025 0.5
0.0766945 0.00223822 0.0025 0.5
0.0766945 0.00223822 -0.0025 0.5
0.0767012 0.00222 0.0025 0.5
0.0767012 0.00222 -0.0025 0.5
0.0767431 0.00117681 -0.00219906 0.5
0.0767431 0.00117681 0.00219906 0.5
0.0767431 0.00117681 0.0025 0.5
0.0767431 0.00117681 -0.0025 0.5
0.0767836 0.00100275 -0.00201691 0.5
0.0767836 0.00100275 0.00201691 0.5
0.0767204 0.003885 2.74048e-19 0.5
0.0767133 0.00329298 -0.00233323 0.5
0.0767133 0.00329298 0.00233323 0.5
0.0767145 0.00336817 -0.00232804 0.5
0.0767145 0.00336817 0.00232804 0.5
0.0767133 0.00329298 0.0025 0.5
0.0767133 0.00329298 -0.0025 0.5
0.0767145 0.00336817 0.0025 0.5
0.0767145 0.00336817 -0.0025 0.5
0.0767836 0.00100275 0.0025 0.5
0.0767836 0.00100275 -0.0025 0.5
0.0767824 0.00111 0.0025 0.5
0.0767824 0.00111 -0.0025 0.5
0.0767283 0.00333 0.0025 0.5
0.0767283 0.00333 -0.0025 0.5
0.076725 0.00439135 -0.00228087 0.5
0.076725 0.00439135 0.00228087 0.5
0.0767262 0.00448988 -0.00227529 0.5
0.0767262 0.00448988 0.00227529 0.5
0.076725 0.00439135 0.0025 0.5
0.076725 0.00439135 -0.0025 0.5
0.0767308 0.004995 1.69087e-19 0.5
0.0767262 0.00448988 0.0025 0.5
0.0767262 0.00448988 -0.0025 0.5
0.0767436 0.00444 0.0025 0.5
0.0767436 0.00444 -0.0025 0.5
0.0767349 0.00549138 -0.00223594 0.5
0.0767349 0.00549138 0.00223594 0.5
0.0767349 0.00549138 0.0025 0.5
0.0767349 0.00549138 -0.0025 0.5
0.0767363 0.00560996 -0.00222992 0.5
0.0767363 0.00560996 0.00222992 0.5
0.0767363 0.00560996 0.0025 0.5
0.0767363 0.00560996 -0.0025 0.5
0.0767405 0.006105 7.25062e-20 0.5
0.0767565 0.00555 0.0025 0.5
0.0767565 0.00555 -0.0025 0.5
0.076745 0.00659135 -0.00219077 0.5
0.076745 0.00659135 0.00219077 0.5
0.076745 0.00659135 0.0025 0.5
0.076745 0.00659135 -0.0025 0.5
0.0767467 0.00673036 -0.00218306 0.5
0.0767467 0.00673036 0.00218306 0.5
0.0767467 0.00673036 0.0025 0.5
0.0767467 0.00673036 -0.0025 0.5
0.0767512 0.007215 1.2773e-19 0.5
0.0767694 0.00666 0.0025 0.5
0.0767694 0.00666 -0.0025 0.5
0.0770983 0.000421541 0.0025 0.5
0.0770983 0.000421541 -0.0025 0.5
0.0767563 0.00769 -0.00213966 0.5
0.0767563 0.00769 0.00213966 0.5
0.0767563 0.00769 0.0025 0.5
0.0767563 0.00769 -0.0025 0.5
0.0767586 0.00785231 -0.00212925 0.5
0.0767586 0.00785231 0.00212925 0.5
0.0771888 0.000430438 4.77835e-20 0.5
0.0767586 0.00785231 0.0025 0.5
0.0767586 0.00785231 -0.0025 0.5
0.0767638 0.008325 5.00298e-20 0.5
0.0767839 0.00777 0.0025 0.5
0.0767839 0.00777 -0.0025 0.5
0.0767695 0.00878687 -0.00208049 0.5
0.0767695 0.00878687 0.00208049 0.5
0.0767695 0.00878687 0.0025 0.5
0.0767695 0.00878687 -0.0025 0.5
0.0767726 0.00897621 -0.0020666 0.5
0.0767726 0.00897621 0.0020666 0.5
0.0767726 0.00897621 -0.0025 0.5
0.0767726 0.00897621 0.0025 0.5
0.0768002 0.00888 0.0025 0.5
0.0768002 0.00888 -0.0025 0.5
0.0767783 0.009435 9.08697e-20 0.5
0.0773655 0.000421541 0.0025 0.5
0.0773655 0.000421541 -0.0025 0.5
0.0767845 0.00988183 -0.00201275 0.5
0.0767845 0.00988183 0.00201275 0.5
0.0767845 0.00988183 0.0025 0.5
0.0767845 0.00988183 -0.0025 0.5
0.0767886 0.0101022 -0.00199454 0.5
0.0767886 0.0101022 0.00199454 0.5
0.0767886 0.0101022 0.0025 0.5
0.0767886 0.0101022 -0.0025 0.5
0.0768185 0.00999 0.0025 0.5
0.0768185 0.00999 -0.0025 0.5
0.0767948 0.010545 2.03649e-19 0.5
0.0768016 0.0109748 -0.00193593 0.5
0.0768016 0.0109748 0.00193593 0.5
0.0768016 0.0109748 -0.0025 0.5
0.0768016 0.0109748 0.0025 0.5
0.0768069 0.0112305 -0.00191212 0.5
0.0768069 0.0112305 0.00191212 0.5
0.0768069 0.0112305 0.0025 0.5
0.0768069 0.0112305 -0.0025 0.5
0.0768387 0.0111 0.0025 0.5
0.0768387 0.0111 -0.0025 0.5
0.0768137 0.011655 -1.84739e-19 0.5
0.0768209 0.0120655 -0.00184911 0.5
0.0768209 0.0120655 0.00184911 0.5
0.0768209 0.0120655 0.0025 0.5
0.0768209 0.0120655 -0.0025 0.5
0.0777875 0.000646221 -0.0025 0.5
0.0777875 0.000646221 0.0025 0.5
0.0768278 0.0123613 -0.00181832 0.5
0.0768278 0.0123613 0.00181832 0.5
0.0768278 0.0123613 0.0025 0.5
0.0768278 0.0123613 -0.0025 0.5
0.0768609 0.01221 -0.0025 0.5
0.0768609 0.01221 0.0025 0.5
0.076835 0.012765 3.41897e-19 0.5
0.0768426 0.0131539 -0.00175168 0.5
0.0768426 0.0131539 0.00175168 0.5
0.0768426 0.0131539 0.0025 0.5
0.0768426 0.0131539 -0.0025 0.5
0.0768513 0.0134948 -0.00171242 0.5
0.0768513 0.0134948 0.00171242 0.5
0.0768513 0.0134948 0.0025 0.5
0.0768513 0.0134948 -0.0025 0.5
0.076885 0.01332 0.0025 0.5
0.076885 0.01332 -0.0025 0.5
0.0768588 0.013875 1.84721e-19 0.5
0.0780653 0.0002775 0.0025 0.5
0.0780653 0.0002775 -0.0025 0.5
0.0768667 0.0142398 -0.00164317 0.5
0.0768667 0.0142398 0.00164317 0.5
0.0768667 0.0142398 0.0025 0.5
0.0768667 0.0142398 -0.0025 0.5
0.0768777 0.0146312 -0.00159356 0.5
0.0768777 0.0146312 0.00159356 0.5
0.0769108 0.01443 0.0025 0.5
0.0769108 0.01443 -0.0025 0.5
0.0768777 0.0146312 0.0025 0.5
0.0768777 0.0146312 -0.0025 0.5
0.0768854 0.014985 8.32156e-20 0.5
0.0783431 0.0002775 8.26565e-20 0.5
0.0768934 0.0153231 -0.00152284 0.5
0.0768934 0.0153231 0.00152284 0.5
0.0768934 0.0153231 0.0025 0.5
0.0768934 0.0153231 -0.0025 0.5
0.0769072 0.0157707 -0.00146083 0.5
0.0769072 0.0157707 0.00146083 0.5
0.0769384 0.01554 0.0025 0.5
0.0769384 0.01554 -0.0025 0.5
0.0769072 0.0157707 0.0025 0.5
0.0769072 0.0157707 -0.0025 0.5
0.076915 0.016095 1.8435e-19 0.5
0.0786209 0.0002775 0.0025 0.5
0.0786209 0.0002775 -0.0025 0.5
0.0769229 0.0164036 -0.00139009 0.5
0.0769229 0.0164036 0.00139009 0.5
0.0769229 0.0164036 0.0025 0.5
0.0769229 0.0164036 -0.0025 0.5
0.0769675 0.01665 0.0025 0.5
0.0769675 0.01665 -0.0025 0.5
0.07694 0.0169135 -0.00131325 0.5
0.07694 0.0169135 0.00131325 0.5
0.07694 0.0169135 0.0025 0.5
0.07694 0.0169135 -0.0025 0.5
0.0769528 0.0173891 5.1695e-19 0.5
0.0788988 0.000555 -0.0025 0.5
0.0788988 0.000555 0.0025 0.5
0.0769554 0.0174812 0.0025 0.5
0.0769554 0.0174812 -0.0025 0.5
0.0769981 0.01776 -0.0025 0.5
0.0769981 0.01776 0.0025 0.5
0.0769764 0.0180598 -0.0025 0.5
0.0769764 0.0180598 0.0025 0.5
0.0769837 0.0183101 4.03211e-19 0.5
0.0791766 0.0002775 0.0025 0.5
0.0791766 0.0002775 -0.0025 0.5
0.076991 0.0185556 -0.0025 0.5
0.076991 0.0185556 0.0025 0.5
0.07703 0.01887 0.0025 0.5
0.07703 0.01887 -0.0025 0.5
0.0770167 0.0192101 -0.0025 0.5
0.0770167 0.0192101 0.0025 0.5
0.0770234 0.0194206 1.07278e-19 0.5
0.0794544 0.0002775 9.54222e-20 0.5
0.07703 0.0196266 0.0025 0.5
0.07703 0.0196266 -0.0025 0.5
0.0770633 0.01998 0.0025 0.5
0.0770633 0.01998 -0.0025 0.5
0.0770614 0.0203647 -0.0025 0.5
0.0770614 0.0203647 0.0025 0.5
0.0770671 0.0205312 -3.65146e-19 0.5
0.0797322 0.0002775 0.0025 0.5
0.0797322 0.0002775 -0.0025 0.5
0.0770728 0.0206939 -0.0025 0.5
0.0770728 0.0206939 0.0025 0.5
0.0770978 0.02109 0.0025 0.5
0.0770978 0.02109 -0.0025 0.5
0.08001 0.000555 -0.0025 0.5
0.08001 0.000555 0.0025 0.5
0.0771152 0.0216421 4.92359e-19 0.5
0.0771108 0.0215241 -0.0025 0.5
0.0771108 0.0215241 0.0025 0.5
0.0771195 0.0217573 -0.0025 0.5
0.0771195 0.0217573 0.0025 0.5
0.0771332 0.0222 0.0025 0.5
0.0771332 0.0222 -0.0025 0.5
0.0802878 0.0002775 0.0025 0.5
0.0802878 0.0002775 -0.0025 0.5
0.0771684 0.0227533 5.29798e-20 0.5
0.0771659 0.0226891 -0.0025 0.5
0.0771659 0.0226891 0.0025 0.5
0.0771708 0.022816 -0.0025 0.5
0.0771708 0.022816 0.0025 0.5
0.0805656 0.0002775 1.15842e-19 0.5
0.0771692 0.02331 0.0025 0.5
0.0771692 0.02331 -0.0025 0.5
0.0772287 0.0238692 4.07071e-20 0.5
0.0772283 0.0238615 0.0025 0.5
0.0772283 0.0238615 -0.0025 0.5
0.0772286 0.0238683 0.0025 0.5
0.0772286 0.0238683 -0.0025 0.5
0.0808434 0.0002775 0.0025 0.5
0.0808434 0.0002775 -0.0025 0.5
0.0772048 0.02442 -0.0025 0.5
0.0772048 0.02442 0.0025 0.5
0.0811213 0.000555 -0.0025 0.5
0.0811213 0.000555 0.0025 0.5
0.077283 0.0249758 1.01231e-20 0.5
0.0772818 0.0249252 0.0025 0.5
0.0772818 0.0249252 -0.0025 0.5
0.0772843 0.0250273 -0.0025 0.5
0.0772843 0.0250273 0.0025 0.5
0.0772401 0.02553 0.0025 0.5
0.0772401 0.02553 -0.0025 0.5
0.0813991 0.0002775 0.0025 0.5
0.0813991 0.0002775 -0.0025 0.5
0.0773336 0.0260866 5.59051e-20 0.5
0.0773313 0.0259857 0.0025 0.5
0.0773313 0.0259857 -0.0025 0.5
0.0816769 0.0002775 9.5745e-20 0.5
0.077336 0.026189 0.0025 0.5
0.077336 0.026189 -0.0025 0.5
0.0772741 0.02664 0.0025 0.5
0.0772741 0.02664 -0.0025 0.5
0.0819547 0.0002775 0.0025 0.5
0.0819547 0.0002775 -0.0025 0.5
0.0773735 0.0270536 0.0025 0.5
0.0773735 0.0270536 -0.0025 0.5
0.0773764 0.027197 2.98396e-20 0.5
0.0773794 0.0273424 0.0025 0.5
0.0773794 0.0273424 -0.0025 0.5
0.0773055 0.02775 0.0025 0.5
0.0773055 0.02775 -0.0025 0.5
0.0822325 0.000555 -0.0025 0.5
0.0822325 0.000555 0.0025 0.5
0.0774103 0.0281268 0.0025 0.5
0.0774103 0.0281268 -0.0025 0.5
0.0774138 0.0283073 1.57296e-19 0.5
0.0774173 0.0284902 0.0025 0.5
0.0774173 0.0284902 -0.0025 0.5
0.0825103 0.0002775 0.0025 0.5
0.0825103 0.0002775 -0.0025 0.5
0.0773355 0.02886 0.0025 0.5
0.0773355 0.02886 -0.0025 0.5
0.0827881 0.0002775 8.32524e-20 0.5
0.0774441 0.029203 0.0025 0.5
0.0774441 0.029203 -0.0025 0.5
0.077448 0.0294176 3.88114e-19 0.5
0.0774519 0.0296348 0.0025 0.5
0.0774519 0.0296348 -0.0025 0.5
0.0773644 0.02997 0.0025 0.5
0.0773644 0.02997 -0.0025 0.5
0.0830659 0.0002775 0.0025 0.5
0.0830659 0.0002775 -0.0025 0.5
0.0774747 0.0302824 0.0025 0.5
0.0774747 0.0302824 -0.0025 0.5
0.0774788 0.0305277 5.46805e-20 0.5
0.0833437 0.000555 -0.0025 0.5
0.0833437 0.000555 0.0025 0.5
0.0774828 0.0307756 0.0025 0.5
0.0774828 0.0307756 -0.0025 0.5
0.0773912 0.03108 0.0025 0.5
0.0773912 0.03108 -0.0025 0.5
0.077502 0.031456 8.41856e-19 0.5
0.0775006 0.0313665 0.0025 0.5
0.0775006 0.0313665 -0.0025 0.5
0.0836216 0.0002775 0.0025 0.5
0.0836216 0.0002775 -0.0025 0.5
0.0775212 0.031924 -0.00130197 0.5
0.0775212 0.031924 0.00130197 0.5
0.0775212 0.031924 -0.0025 0.5
0.0775212 0.031924 0.0025 0.5
0.0838994 0.0002775 3.228e-22 0.5
0.0774486 0.03219 -0.0025 0.5
0.0774486 0.03219 0.0025 0.5
0.0775734 0.0324039 0.00153646 0.5
0.0775734 0.0324039 -0.00153646 0.5
0.0775734 0.0324039 0.0025 0.5
0.0775734 0.0324039 -0.0025 0.5
0.0841772 0.0002775 0.0025 0.5
0.0841772 0.0002775 -0.0025 0.5
0.0775909 0.032745 -6.516e-19 0.5
0.0775952 0.0331079 -0.00163458 0.5
0.0775952 0.0331079 0.00163458 0.5
0.0775033 0.0333 0.0025 0.5
0.0775033 0.0333 -0.0025 0.5
0.0775952 0.0331079 0.0025 0.5
0.0775952 0.0331079 -0.0025 0.5
0.084455 0.000555 -0.0025 0.5
0.084455 0.000555 0.0025 0.5
0.0776038 0.0334835 0.00167359 0.5
0.0776038 0.0334835 -0.00167359 0.5
0.0776038 0.0334835 0.0025 0.5
0.0776038 0.0334835 -0.0025 0.5
0.0776081 0.033855 1.74741e-19 0.5
0.0847328 0.0002775 0.0025 0.5
0.0847328 0.0002775 -0.0025 0.5
0.0776001 0.0342228 -0.00165659 0.5
0.0776001 0.0342228 0.00165659 0.5
0.0774948 0.03441 0.0025 0.5
0.0774948 0.03441 -0.0025 0.5
0.0776001 0.0342228 0.0025 0.5
0.0776001 0.0342228 -0.0025 0.5
0.0775826 0.0346147 0.00157799 0.5
0.0775826 0.0346147 -0.00157799 0.5
0.0775826 0.0346147 0.0025 0.5
0.0775826 0.0346147 -0.0025 0.5
0.0850106 0.0002775 0 0.5
0.0775746 0.034965 2.53731e-19 0.5
0.077579 0.0353117 -0.00156167 0.5
0.077579 0.0353117 0.00156167 0.5
0.077579 0.0353117 0.0025 0.5
0.077579 0.0353117 -0.0025 0.5
0.0774865 0.03552 0.0025 0.5
0.0774865 0.03552 -0.0025 0.5
0.0852884 0.0002775 0.0025 0.5
0.0852884 0.0002775 -0.0025 0.5
0.0775891 0.0357182 0.00160709 0.5
0.0775891 0.0357182 -0.00160709 0.5
0.0775891 0.0357182 0.0025 0.5
0.0775891 0.0357182 -0.0025 0.5
0.0775934 0.036075 1.4083e-18 0.5
0.0855663 0.000555 -0.0025 0.5
0.0855663 0.000555 0.0025 0.5
0.077597 0.0364397 -0.00164298 0.5
0.077597 0.0364397 0.00164298 0.5
0.0775052 0.03663 -0.0025 0.5
0.0775052 0.03663 0.0025 0.5
0.077597 0.0364397 -0.0025 0.5
0.077597 0.0364397 0.0025 0.5
0.0858441 0.0002775 0.0025 0.5
0.0858441 0.0002775 -0.0025 0.5
0.0776043 0.036813 0.00167582 0.5
0.0776043 0.036813 -0.00167582 0.5
0.0776043 0.036813 -0.0025 0.5
0.0776043 0.036813 0.0025 0.5
0.0776079 0.037185 -1.00692e-18 0.5
0.0861219 0.0002775 0 0.5
0.0776111 0.0375638 -0.00170614 0.5
0.0776111 0.0375638 0.00170614 0.5
0.0775207 0.03774 0.0025 0.5
0.0775207 0.03774 -0.0025 0.5
0.0776111 0.0375638 0.0025 0.5
0.0776111 0.0375638 -0.0025 0.5
0.0776168 0.0379105 -0.00173177 0.5
0.0776168 0.0379105 0.00173177 0.5
0.0776168 0.0379105 0.0025 0.5
0.0776168 0.0379105 -0.0025 0.5
0.0863997 0.0002775 0.0025 0.5
0.0863997 0.0002775 -0.0025 0.5
0.0776199 0.038295 2.73507e-19 0.5
0.0866775 0.000555 -0.0025 0.5
0.0866775 0.000555 0.0025 0.5
0.0776225 0.0386852 -0.00175772 0.5
0.0776225 0.0386852 0.00175772 0.5
0.0775338 0.03885 0.0025 0.5
0.0775338 0.03885 -0.0025 0.5
0.0776225 0.0386852 0.0025 0.5
0.0776225 0.0386852 -0.0025 0.5
0.0776269 0.0390104 0.00177736 0.5
0.0776269 0.0390104 -0.00177736 0.5
0.0776269 0.0390104 -0.0025 0.5
0.0776269 0.0390104 0.0025 0.5
0.0869553 0.0002775 0.0025 0.5
0.0869553 0.0002775 -0.0025 0.5
0.0776295 0.039405 1.18599e-19 0.5
0.0872331 0.0002775 0 0.5
0.0776316 0.0398043 -0.00179852 0.5
0.0776316 0.0398043 0.00179852 0.5
0.0775443 0.03996 0.0025 0.5
0.0775443 0.03996 -0.0025 0.5
0.0776316 0.0398043 0.0025 0.5
0.0776316 0.0398043 -0.0025 0.5
0.0776348 0.0401125 0.00181284 0.5
0.0776348 0.0401125 -0.00181284 0.5
0.0776348 0.0401125 -0.0025 0.5
0.0776348 0.0401125 0.0025 0.5
0.0875109 0.0002775 0.0025 0.5
0.0875109 0.0002775 -0.0025 0.5
0.0776368 0.040515 1.58027e-18 0.5
0.0776383 0.040921 -0.00182873 0.5
0.0776383 0.040921 0.00182873 0.5
0.0775521 0.04107 0.0025 0.5
0.0775521 0.04107 -0.0025 0.5
0.0776383 0.040921 -0.0025 0.5
0.0776383 0.040921 0.0025 0.5
0.0877888 0.000555 -0.0025 0.5
0.0877888 0.000555 0.0025 0.5
0.0776404 0.0412169 -0.00183829 0.5
0.0776404 0.0412169 0.00183829 0.5
0.0776404 0.0412169 0.0025 0.5
0.0776404 0.0412169 -0.0025 0.5
0.0880666 0.0002775 -0.00125 0.5
0.0880666 0.0002775 0.00125 0.5
0.0776419 0.041625 -2.01207e-18 0.5
0.0880666 0.0002775 0.0025 0.5
0.0880666 0.0002775 -0.0025 0.5
0.0776427 0.0420354 0.0018486 0.5
0.0776427 0.0420354 -0.0018486 0.5
0.0775571 0.04218 0.0025 0.5
0.0775571 0.04218 -0.0025 0.5
0.0776427 0.0420354 0.0025 0.5
0.0776427 0.0420354 -0.0025 0.5
0.0883444 0.0002775 0 0.5
0.0883444 0.00111 0.0025 0.5
0.0883444 0.00111 -0.0025 0.5
0.0883444 0.00222 0.0025 0.5
0.0883444 0.00222 -0.0025 0.5
0.0883444 0.00333 0.0025 0.5
0.0883444 0.00333 -0.0025 0.5
0.0776439 0.0423234 -0.00185383 0.5
0.0776439 0.0423234 0.00185383 0.5
0.0776439 0.0423234 0.0025 0.5
0.0776439 0.0423234 -0.0025 0.5
0.0883444 0.00444 0.0025 0.5
0.0883444 0.00444 -0.0025 0.5
0.0883444 0.00555 0.0025 0.5
0.0883444 0.00555 -0.0025 0.5
0.0886222 0.000555 0 0.5
0.0776447 0.042735 9.09552e-19 0.5
0.0883444 0.00666 0.0025 0.5
0.0883444 0.00666 -0.0025 0.5
0.0886222 0.0002775 -0.00125 0.5
0.0886222 0.0002775 0.00125 0.5
0.0886222 0.0008325 0.00125 0.5
0.0886222 0.0008325 -0.00125 0.5
0.0886222 0.001665 0 0.5
0.0886222 0.0002775 0.0025 0.5
0.0886222 0.0002775 -0.0025 0.5
0.0886222 0.0008325 0.0025 0.5
0.0886222 0.0008325 -0.0025 0.5
0.0886222 0.002775 0 0.5
0.0886222 0.0013875 0.0025 0.5
0.0886222 0.0013875 -0.0025 0.5
0.0886222 0.0019425 0.0025 0.5
0.0886222 0.0019425 -0.0025 0.5
0.0886222 0.0024975 0.0025 0.5
0.0886222 0.0024975 -0.0025 0.5
0.0886222 0.003885 0 0.5
0.0886222 0.0030525 0.0025 0.5
0.0886222 0.0030525 -0.0025 0.5
0.0883444 0.00777 0.0025 0.5
0.0883444 0.00777 -0.0025 0.5
0.0886222 0.0036075 0.0025 0.5
0.0886222 0.0036075 -0.0025 0.5
0.0886222 0.0041625 0.0025 0.5
0.0886222 0.0041625 -0.0025 0.5
0.0886222 0.004995 -1.81603e-19 0.5
0.0886222 0.0047175 0.0025 0.5
0.0886222 0.0047175 -0.0025 0.5
0.0886222 0.0052725 0.0025 0.5
0.0886222 0.0052725 -0.0025 0.5
0.0883444 0.00888 0.0025 0.5
0.0883444 0.00888 -0.0025 0.5
0.0886222 0.006105 -4.31797e-21 0.5
0.0776449 0.0431476 -0.00185846 0.5
0.0776449 0.0431476 0.00185846 0.5
0.0886222 0.0058275 0.0025 0.5
0.0886222 0.0058275 -0.0025 0.5
0.0775594 0.04329 -0.0025 0.5
0.0775594 0.04329 0.0025 0.5
0.0776449 0.0431476 0.0025 0.5
0.0776449 0.0431476 -0.0025 0.5
0.0886222 0.0063825 0.0025 0.5
0.0886222 0.0063825 -0.0025 0.5
0.0886222 0.007215 3.76366e-21 0.5
0.0886222 0.0069375 -0.0025 0.5
0.0886222 0.0069375 0.0025 0.5
0.0883444 0.00999 0.0025 0.5
0.0883444 0.00999 -0.0025 0.5
0.0886222 0.0074925 -0.0025 0.5
0.0886222 0.0074925 0.0025 0.5
0.0776452 0.0434321 0.00185969 0.5
0.0776452 0.0434321 -0.00185969 0.5
0.0776452 0.0434321 0.0025 0.5
0.0776452 0.0434321 -0.0025 0.5
0.0886222 0.008325 1.10296e-21 0.5
0.0886222 0.0080475 -0.0025 0.5
0.0886222 0.0080475 0.0025 0.5
0.0886222 0.0086025 -0.0025 0.5
0.0886222 0.0086025 0.0025 0.5
0.0883444 0.0111 0.0025 0.5
0.0883444 0.0111 -0.0025 0.5
0.0886222 0.009435 1.92878e-21 0.5
0.0886222 0.0091575 0.0025 0.5
0.0886222 0.0091575 -0.0025 0.5
0.0776454 0.043845 1.55794e-19 0.5
0.0886222 0.0097125 0.0025 0.5
0.0886222 0.0097125 -0.0025 0.5
0.0883444 0.01221 0.0025 0.5
0.0883444 0.01221 -0.0025 0.5
0.0886222 0.010545 3.88923e-21 0.5
0.0886222 0.0102675 0.0025 0.5
0.0886222 0.0102675 -0.0025 0.5
0.0886222 0.0108225 0.0025 0.5
0.0886222 0.0108225 -0.0025 0.5
0.0883444 0.01332 0.0025 0.5
0.0883444 0.01332 -0.0025 0.5
0.0886222 0.0113775 0.0025 0.5
0.0886222 0.0113775 -0.0025 0.5
0.0886222 0.011655 2.78619e-21 0.5
0.077645 0.0442576 0.00185874 0.5
0.077645 0.0442576 -0.00185874 0.5
0.0775589 0.0444 -0.0025 0.5
0.0775589 0.0444 0.0025 0.5
0.077645 0.0442576 0.0025 0.5
0.077645 0.0442576 -0.0025 0.5
0.0886222 0.0119325 0.0025 0.5
0.0886222 0.0119325 -0.0025 0.5
0.0886222 0.0124875 -0.0025 0.5
0.0886222 0.0124875 0.0025 0.5
0.0776444 0.0445429 0.00185619 0.5
0.0776444 0.0445429 -0.00185619 0.5
0.0886222 0.012765 1.81655e-19 0.5
0.0776444 0.0445429 0.0025 0.5
0.0776444 0.0445429 -0.0025 0.5
0.0883444 0.01443 0.0025 0.5
0.0883444 0.01443 -0.0025 0.5
0.0886222 0.0130425 -0.0025 0.5
0.0886222 0.0130425 0.0025 0.5
0.0886222 0.0135975 0.0025 0.5
0.0886222 0.0135975 -0.0025 0.5
0.0886222 0.013875 0 0.5
0.077644 0.044955 1.75404e-18 0.5
0.0883444 0.01554 0.0025 0.5
0.0883444 0.01554 -0.0025 0.5
0.0886222 0.0141525 0.0025 0.5
0.0886222 0.0141525 -0.0025 0.5
0.0886222 0.0147075 -0.0025 0.5
0.0886222 0.0147075 0.0025 0.5
0.0886222 0.014985 7.52748e-21 0.5
0.0883444 0.01665 0.0025 0.5
0.0883444 0.01665 -0.0025 0.5
0.077643 0.0453657 -0.00184989 0.5
0.077643 0.0453657 0.00184989 0.5
0.0775559 0.04551 -0.0025 0.5
0.0775559 0.04551 0.0025 0.5
0.077643 0.0453657 0.0025 0.5
0.077643 0.0453657 -0.0025 0.5
0.0886222 0.0152625 -0.0025 0.5
0.0886222 0.0152625 0.0025 0.5
0.0886222 0.0158175 0.0025 0.5
0.0886222 0.0158175 -0.0025 0.5
0.0886222 0.016095 0 0.5
0.0776416 0.0456557 0.00184359 0.5
0.0776416 0.0456557 -0.00184359 0.5
0.0776416 0.0456557 0.0025 0.5
0.0776416 0.0456557 -0.0025 0.5
0.0883444 0.01776 0.0025 0.5
0.0883444 0.01776 -0.0025 0.5
0.0886222 0.0163725 0.0025 0.5
0.0886222 0.0163725 -0.0025 0.5
0.0886222 0.0169275 0.0025 0.5
0.0886222 0.0169275 -0.0025 0.5
0.0886222 0.017205 0 0.5
0.0776406 0.046065 -1.36561e-18 0.5
0.0886222 0.0174825 0.0025 0.5
0.0886222 0.0174825 -0.0025 0.5
0.0883444 0.01887 0.0025 0.5
0.0883444 0.01887 -0.0025 0.5
0.0886222 0.0180375 0.0025 0.5
0.0886222 0.0180375 -0.0025 0.5
0.0886222 0.018315 -4.24739e-19 0.5
0.0776391 0.0464718 -0.00183222 0.5
0.0776391 0.0464718 0.00183222 0.5
0.0776391 0.0464718 0.0025 0.5
0.0776391 0.0464718 -0.0025 0.5
0.0775503 0.04662 -0.0025 0.5
0.0775503 0.04662 0.0025 0.5
0.0886222 0.0185925 0.0025 0.5
0.0886222 0.0185925 -0.0025 0.5
0.0883444 0.01998 0.0025 0.5
0.0883444 0.01998 -0.0025 0.5
0.0776368 0.0467705 -0.00182202 0.5
0.0776368 0.0467705 0.00182202 0.5
0.0776368 0.0467705 0.0025 0.5
0.0776368 0.0467705 -0.0025 0.5
0.0886222 0.0191475 0.0025 0.5
0.0886222 0.0191475 -0.0025 0.5
0.0886222 0.019425 2.54579e-19 0.5
0.0886222 0.0197025 0.0025 0.5
0.0886222 0.0197025 -0.0025 0.5
0.0776353 0.047175 5.76346e-20 0.5
0.0883444 0.02109 0.0025 0.5
0.0883444 0.02109 -0.0025 0.5
0.0886222 0.0202575 0.0025 0.5
0.0886222 0.0202575 -0.0025 0.5
0.0886222 0.020535 -4.2863e-21 0.5
0.0886222 0.0208125 0.0025 0.5
0.0886222 0.0208125 -0.0025 0.5
0.0776333 0.0475759 -0.00180598 0.5
0.0776333 0.0475759 0.00180598 0.5
0.0776333 0.0475759 0.0025 0.5
0.0776333 0.0475759 -0.0025 0.5
0.0775424 0.04773 0.0025 0.5
0.0775424 0.04773 -0.0025 0.5
0.0883444 0.0222 0.0025 0.5
0.0883444 0.0222 -0.0025 0.5
0.0886222 0.0213675 0.0025 0.5
0.0886222 0.0213675 -0.0025 0.5
0.0886222 0.021645 -2.44648e-21 0.5
0.0776301 0.0478872 -0.00179178 0.5
0.0776301 0.0478872 0.00179178 0.5
0.0776301 0.0478872 0.0025 0.5
0.0776301 0.0478872 -0.0025 0.5
0.0886222 0.0219225 0.0025 0.5
0.0886222 0.0219225 -0.0025 0.5
0.0883444 0.02331 0.0025 0.5
0.0883444 0.02331 -0.0025 0.5
0.0776281 0.048285 6.4564e-20 0.5
0.0886222 0.0224775 0.0025 0.5
0.0886222 0.0224775 -0.0025 0.5
0.0886222 0.022755 -2.49561e-19 0.5
0.0886222 0.0230325 0.0025 0.5
0.0886222 0.0230325 -0.0025 0.5
0.0776256 0.0486783 -0.00177173 0.5
0.0776256 0.0486783 0.00177173 0.5
0.0776256 0.0486783 -0.0025 0.5
0.0776256 0.0486783 0.0025 0.5
0.0775323 0.04884 0.0025 0.5
0.0775323 0.04884 -0.0025 0.5
0.0883444 0.02442 0.0025 0.5
0.0883444 0.02442 -0.0025 0.5
0.0886222 0.0235875 0.0025 0.5
0.0886222 0.0235875 -0.0025 0.5
0.0886222 0.023865 4.33092e-19 0.5
0.0776216 0.0490057 0.00175344 0.5
0.0776216 0.0490057 -0.00175344 0.5
0.0776216 0.0490057 0.0025 0.5
0.0776216 0.0490057 -0.0025 0.5
0.0886222 0.0241425 0.0025 0.5
0.0886222 0.0241425 -0.0025 0.5
0.0883444 0.02553 0.0025 0.5
0.0883444 0.02553 -0.0025 0.5
0.0776191 0.049395 2.75832e-18 0.5
0.0886222 0.0246975 -0.0025 0.5
0.0886222 0.0246975 0.0025 0.5
0.0886222 0.024975 1.19177e-21 0.5
0.0886222 0.0252525 0.0025 0.5
0.0886222 0.0252525 -0.0025 0.5
0.0776164 0.0497791 -0.0017302 0.5
0.0776164 0.0497791 0.0017302 0.5
0.0776164 0.0497791 -0.0025 0.5
0.0776164 0.0497791 0.0025 0.5
0.0775205 0.04995 -0.0025 0.5
0.0775205 0.04995 0.0025 0.5
0.0883444 0.02664 0.0025 0.5
0.0883444 0.02664 -0.0025 0.5
0.0886222 0.0258075 0.0025 0.5
0.0886222 0.0258075 -0.0025 0.5
0.0886222 0.026085 9.22105e-21 0.5
0.0776114 0.0501259 0.00170781 0.5
0.0776114 0.0501259 -0.00170781 0.5
0.0776114 0.0501259 -0.0025 0.5
0.0776114 0.0501259 0.0025 0.5
0.0886222 0.0263625 0.0025 0.5
0.0886222 0.0263625 -0.0025 0.5
0.0776087 0.050505 -2.34585e-18 0.5
0.0883444 0.02775 0.0025 0.5
0.0883444 0.02775 -0.0025 0.5
0.0886222 0.0269175 0.0025 0.5
0.0886222 0.0269175 -0.0025 0.5
0.0886222 0.027195 1.2044e-20 0.5
0.0776058 0.0508785 -0.00168226 0.5
0.0776058 0.0508785 0.00168226 0.5
0.0886222 0.0274725 0.0025 0.5
0.0886222 0.0274725 -0.0025 0.5
0.0776058 0.0508785 0.0025 0.5
0.0776058 0.0508785 -0.0025 0.5
0.0775072 0.05106 -0.0025 0.5
0.0775072 0.05106 0.0025 0.5
0.0883444 0.02886 0.0025 0.5
0.0883444 0.02886 -0.0025 0.5
0.0886222 0.0280275 0.0025 0.5
0.0886222 0.0280275 -0.0025 0.5
0.0775999 0.0512474 0.00165593 0.5
0.0775999 0.0512474 -0.00165593 0.5
0.0775999 0.0512474 0.0025 0.5
0.0775999 0.0512474 -0.0025 0.5
0.0886222 0.028305 -8.22717e-21 0.5
0.0886222 0.0285825 0.0025 0.5
0.0886222 0.0285825 -0.0025 0.5
0.077597 0.051615 5.49166e-20 0.5
0.0886222 0.0291375 0.0025 0.5
0.0886222 0.0291375 -0.0025 0.5
0.0883444 0.02997 0.0025 0.5
0.0883444 0.02997 -0.0025 0.5
0.0886222 0.029415 -6.85063e-19 0.5
0.0775939 0.0519766 -0.00162903 0.5
0.0775939 0.0519766 0.00162903 0.5
0.0775939 0.0519766 0.0025 0.5
0.0775939 0.0519766 -0.0025 0.5
0.0774929 0.05217 0.0025 0.5
0.0774929 0.05217 -0.0025 0.5
0.0886222 0.0296925 0.0025 0.5
0.0886222 0.0296925 -0.0025 0.5
0.0775873 0.05237 0.00159903 0.5
0.0775873 0.05237 -0.00159903 0.5
0.0775873 0.05237 0.0025 0.5
0.0775873 0.05237 -0.0025 0.5
0.0886222 0.0302475 0.0025 0.5
0.0886222 0.0302475 -0.0025 0.5
0.0883444 0.03108 0.0025 0.5
0.0883444 0.03108 -0.0025 0.5
0.0886222 0.030525 6.22217e-19 0.5
0.0775842 0.052725 2.58063e-19 0.5
0.0886222 0.0308025 0.0025 0.5
0.0886222 0.0308025 -0.0025 0.5
0.0775812 0.0530739 -0.00157167 0.5
0.0775812 0.0530739 0.00157167 0.5
0.0775812 0.0530739 0.0025 0.5
0.0775812 0.0530739 -0.0025 0.5
0.0886222 0.0313575 0.0025 0.5
0.0886222 0.0313575 -0.0025 0.5
0.0883444 0.03219 0.0025 0.5
0.0883444 0.03219 -0.0025 0.5
0.0774779 0.05328 0.0025 0.5
0.0774779 0.05328 -0.0025 0.5
0.0886222 0.031635 -3.88923e-21 0.5
0.0886222 0.0319125 0.0025 0.5
0.0886222 0.0319125 -0.0025 0.5
0.0775738 0.0534935 0.0015384 0.5
0.0775738 0.0534935 -0.0015384 0.5
0.0775738 0.0534935 0.0025 0.5
0.0775738 0.0534935 -0.0025 0.5
0.0886222 0.0324675 0.0025 0.5
0.0886222 0.0324675 -0.0025 0.5
0.0775707 0.053835 -1.49909e-19 0.5
0.0883444 0.0333 0.0025 0.5
0.0883444 0.0333 -0.0025 0.5
0.0886222 0.032745 0 0.5
0.0886222 0.0330225 0.0025 0.5
0.0886222 0.0330225 -0.0025 0.5
0.0775678 0.0541705 -0.00151147 0.5
0.0775678 0.0541705 0.00151147 0.5
0.0775678 0.0541705 0.0025 0.5
0.0775678 0.0541705 -0.0025 0.5
0.0774628 0.05439 0.0025 0.5
0.0774628 0.05439 -0.0025 0.5
0.0886222 0.0335775 0.0025 0.5
0.0886222 0.0335775 -0.0025 0.5
0.0883444 0.03441 0.0025 0.5
0.0883444 0.03441 -0.0025 0.5
0.0886222 0.033855 0 0.5
0.0775599 0.0546174 0.00147583 0.5
0.0775599 0.0546174 -0.00147583 0.5
0.0775599 0.0546174 0.0025 0.5
0.0775599 0.0546174 -0.0025 0.5
0.0886222 0.0341325 0.0025 0.5
0.0886222 0.0341325 -0.0025 0.5
0.0775569 0.054945 -1.25468e-18 0.5
0.0886222 0.0346875 0.0025 0.5
0.0886222 0.0346875 -0.0025 0.5
0.0775542 0.055267 0.00145031 0.5
0.0775542 0.055267 -0.00145031 0.5
0.0883444 0.03552 0.0025 0.5
0.0883444 0.03552 -0.0025 0.5
0.0775542 0.055267 0.0025 0.5
0.0775542 0.055267 -0.0025 0.5
0.0886222 0.034965 -3.39789e-22 0.5
0.077448 0.0555 0.0025 0.5
0.077448 0.0555 -0.0025 0.5
0.0886222 0.0352425 0.0025 0.5
0.0886222 0.0352425 -0.0025 0.5
0.0775461 0.0557412 -0.00141366 0.5
0.0775461 0.0557412 0.00141366 0.5
0.0775461 0.0557412 -0.0025 0.5
0.0775461 0.0557412 0.0025 0.5
0.0886222 0.0357975 0.0025 0.5
0.0886222 0.0357975 -0.0025 0.5
0.0883444 0.03663 0.0025 0.5
0.0883444 0.03663 -0.0025 0.5
0.0775433 0.056055 3.6599e-18 0.5
0.0886222 0.036075 1.76716e-21 0.5
0.0886222 0.0363525 0.0025 0.5
0.0886222 0.0363525 -0.0025 0.5
0.0775409 0.0563637 0.00139034 0.5
0.0775409 0.0563637 -0.00139034 0.5
0.0775409 0.0563637 0.0025 0.5
0.0775409 0.0563637 -0.0025 0.5
0.0774339 0.05661 0.0025 0.5
0.0774339 0.05661 -0.0025 0.5
0.0886222 0.0369075 0.0025 0.5
0.0886222 0.0369075 -0.0025 0.5
0.0883444 0.03774 0.0025 0.5
0.0883444 0.03774 -0.0025 0.5
0.0886222 0.037185 -6.78638e-19 0.5
0.0775328 0.0568644 0.00135406 0.5
0.0775328 0.0568644 -0.00135406 0.5
0.0775328 0.0568644 0.0025 0.5
0.0775328 0.0568644 -0.0025 0.5
0.0886222 0.0374625 0.0025 0.5
0.0886222 0.0374625 -0.0025 0.5
0.0775304 0.057165 -2.17873e-18 0.5
0.0886222 0.0380175 -0.0025 0.5
0.0886222 0.0380175 0.0025 0.5
0.0775282 0.057461 0.00133344 0.5
0.0775282 0.057461 -0.00133344 0.5
0.0775282 0.057461 0.0025 0.5
0.0775282 0.057461 -0.0025 0.5
0.0883444 0.03885 0.0025 0.5
0.0883444 0.03885 -0.0025 0.5
0.0886222 0.038295 1.29532e-18 0.5
0.0774211 0.05772 -0.0025 0.5
0.0774211 0.05772 0.0025 0.5
0.0886222 0.0385725 -0.0025 0.5
0.0886222 0.0385725 0.0025 0.5
0.0775206 0.0579866 0.00129894 0.5
0.0775206 0.0579866 -0.00129894 0.5
0.0775206 0.0579866 0.0025 0.5
0.0775206 0.0579866 -0.0025 0.5
0.0886222 0.0391275 -0.0025 0.5
0.0886222 0.0391275 0.0025 0.5
0.0775184 0.058275 1.51996e-18 0.5
0.0886222 0.039405 -6.22645e-19 0.5
0.0883444 0.03996 0.0025 0.5
0.0883444 0.03996 -0.0025 0.5
0.0886222 0.0396825 -0.0025 0.5
0.0886222 0.0396825 0.0025 0.5
0.0775166 0.0585594 -0.00128125 0.5
0.0775166 0.0585594 0.00128125 0.5
0.0775166 0.0585594 0.0025 0.5
0.0775166 0.0585594 -0.0025 0.5
0.0774097 0.05883 0.0025 0.5
0.0774097 0.05883 -0.0025 0.5
0.0886222 0.0402375 0.0025 0.5
0.0886222 0.0402375 -0.0025 0.5
0.0886222 0.040515 -2.0701e-21 0.5
0.0883444 0.04107 0.0025 0.5
0.0883444 0.04107 -0.0025 0.5
0.0775096 0.0591076 0.0025 0.5
0.0775096 0.0591076 -0.0025 0.5
0.0886222 0.0407925 0.0025 0.5
0.0886222 0.0407925 -0.0025 0.5
0.0775079 0.0593839 -1.44949e-19 0.5
0.0886222 0.0413475 0.0025 0.5
0.0886222 0.0413475 -0.0025 0.5
0.0775063 0.0596591 0.0025 0.5
0.0775063 0.0596591 -0.0025 0.5
0.0886222 0.041625 0 0.5
0.0774 0.05994 0.0025 0.5
0.0774 0.05994 -0.0025 0.5
0.0883444 0.04218 0.0025 0.5
0.0883444 0.04218 -0.0025 0.5
0.0886222 0.0419025 0.0025 0.5
0.0886222 0.0419025 -0.0025 0.5
0.0775001 0.0602271 0.0025 0.5
0.0775001 0.0602271 -0.0025 0.5
0.0886222 0.0424575 0.0025 0.5
0.0886222 0.0424575 -0.0025 0.5
0.0774987 0.0604941 -1.30581e-18 0.5
0.0886222 0.042735 0 0.5
0.0883444 0.04329 0.0025 0.5
0.0883444 0.04329 -0.0025 0.5
0.0774974 0.0607602 0.0025 0.5
0.0774974 0.0607602 -0.0025 0.5
0.0886222 0.0430125 0.0025 0.5
0.0886222 0.0430125 -0.0025 0.5
0.0773917 0.06105 0.0025 0.5
0.0773917 0.06105 -0.0025 0.5
0.0886222 0.0435675 0.0025 0.5
0.0886222 0.0435675 -0.0025 0.5
0.0774919 0.0613453 0.0025 0.5
0.0774919 0.0613453 -0.0025 0.5
0.0886222 0.043845 0 0.5
0.0883444 0.0444 0.0025 0.5
0.0883444 0.0444 -0.0025 0.5
0.0774908 0.0616043 1.76483e-18 0.5
0.0886222 0.0441225 0.0025 0.5
0.0886222 0.0441225 -0.0025 0.5
0.0774897 0.0618625 0.0025 0.5
0.0774897 0.0618625 -0.0025 0.5
0.0886222 0.0446775 0.0025 0.5
0.0886222 0.0446775 -0.0025 0.5
0.0773849 0.06216 0.0025 0.5
0.0773849 0.06216 -0.0025 0.5
0.0886222 0.044955 0 0.5
0.0883444 0.04551 0.0025 0.5
0.0883444 0.04551 -0.0025 0.5
0.0886222 0.0452325 0.0025 0.5
0.0886222 0.0452325 -0.0025 0.5
0.077485 0.0624622 0.0025 0.5
0.077485 0.0624622 -0.0025 0.5
0.077484 0.0627144 2.67266e-19 0.5
0.0886222 0.0457875 0.0025 0.5
0.0886222 0.0457875 -0.0025 0.5
0.0774831 0.062966 0.0025 0.5
0.0774831 0.062966 -0.0025 0.5
0.0886222 0.046065 -6.78387e-19 0.5
0.0883444 0.04662 0.0025 0.5
0.0883444 0.04662 -0.0025 0.5
0.0773792 0.06327 -0.0025 0.5
0.0773792 0.06327 0.0025 0.5
0.0886222 0.0463425 0.0025 0.5
0.0886222 0.0463425 -0.0025 0.5
0.0774789 0.0635783 0.0025 0.5
0.0774789 0.0635783 -0.0025 0.5
0.0886222 0.0468975 0.0025 0.5
0.0886222 0.0468975 -0.0025 0.5
0.0774779 0.0638243 1.84112e-18 0.5
0.0886222 0.047175 6.78675e-19 0.5
0.0883444 0.04773 0.0025 0.5
0.0883444 0.04773 -0.0025 0.5
0.0886222 0.0474525 0.0025 0.5
0.0886222 0.0474525 -0.0025 0.5