0 	0 	0 	0
0.000446734 	0.00022957 	0.00344534 	3.93284e-26
0.000893467 	0.000459146 	0.0068699 	7.85103e-26
0.0013402 	0.000651739 	0.00953359 	8.75652e-26
0.00178693 	0.000808218 	0.0114725 	6.85146e-26
0.00223367 	0.000959686 	0.0133706 	4.91222e-26
0.0026804 	0.0010032 	0.0141848 	2.89909e-26
0.00312714 	0.00104671 	0.0149989 	8.85958e-27
0.00357387 	0.00106403 	0.015558 	9.00438e-27
0.0040206 	0.00106162 	0.0159089 	2.64855e-26
0.00446734 	0.00105792 	0.0162487 	4.4462e-26
0.00491407 	0.00104467 	0.0163994 	7.32924e-26
0.0053608 	0.00103143 	0.01655 	1.02123e-25
0.00580754 	0.00101463 	0.0166121 	1.10908e-25
0.00625427 	0.000995961 	0.0166057 	1.05079e-25
0.00670101 	0.000976395 	0.0165883 	9.73708e-26
0.00714774 	0.000951425 	0.0164409 	6.85404e-26
0.00759447 	0.000926455 	0.0162935 	3.971e-26
0.00804121 	0.000898012 	0.0160794 	2.18788e-26
0.00848794 	0.000867695 	0.0158193 	1.02262e-26
0.00893467 	0.000836796 	0.0155507 	0
0.00938141 	0.000802978 	0.0152096 	0
0.00982814 	0.000769159 	0.0148685 	0
0.0102749 	0.000734101 	0.0144941 	0
0.0107216 	0.000698495 	0.0140992 	0
0.0111683 	0.000662756 	0.0137 	0
0.0116151 	0.00062666 	0.0132723 	0
0.0120618 	0.000590565 	0.0128446 	0
0.0125085 	0.000554696 	0.0124059 	0
0.0129553 	0.000518976 	0.0119611 	0
0.013402 	0.000483431 	0.0115156 	0
0.0138487 	0.000448644 	0.0110663 	0
0.0142955 	0.000413858 	0.0106169 	0
0.0147422 	0.000380001 	0.010171 	0
0.0151889 	0.000346512 	0.00972694 	0
0.0156357 	0.000313386 	0.00928505 	0
0.0160824 	0.000281417 	0.00885374 	0
0.0165291 	0.000249449 	0.00842242 	0
0.0169759 	0.000218709 	0.0080035 	0
0.0174226 	0.00018836 	0.00759024 	0
0.0178693 	0.000158459 	0.00718126 	0
0.0183161 	0.000129723 	0.00678934 	0
0.0187628 	0.000100987 	0.00639743 	0
0.0192095 	7.3452e-05 	0.00602189 	0
0.0196563 	4.62232e-05 	0.00565292 	0
0.020103 	1.94152e-05 	0.00528919 	0
0.0205497 	-6.49482e-06 	0.00494336 	0
0.0209965 	-3.24049e-05 	0.00459754 	0
0.0214432 	-5.74136e-05 	0.0042681 	0
0.0218899 	-8.22586e-05 	0.00394445 	0
0.0223367 	-0.00010681 	0.00362591 	0
0.0227834 	-0.000130896 	0.00332251 	0
0.0232302 	-0.000154981 	0.0030191 	0
0.0236769 	-0.000178665 	0.00272914 	0
0.0241236 	-0.000202338 	0.00244331 	0
0.0245704 	-0.000225938 	0.00216145 	0
0.0250171 	-0.000249592 	0.00188991 	0
0.0254638 	-0.000273245 	0.00161837 	0
0.0259106 	-0.000297156 	0.0013552 	0
0.0263573 	-0.000321196 	0.00109424 	0
0.026804 	-0.000345428 	0.00083528 	0
0.0272508 	-0.000370186 	0.000580882 	0
0.0276975 	-0.000394943 	0.000326484 	0
0.0281442 	-0.000420607 	7.40416e-05 	0
0.028591 	-0.000446481 	-0.000177976 	0
0.0290377 	-0.000472903 	-0.00043058 	0
0.0294844 	-0.000500389 	-0.000684439 	0
0.0299312 	-0.000527874 	-0.000938299 	0
0.0303779 	-0.000557045 	-0.00119716 	0
0.0308246 	-0.000586485 	-0.00145699 	0
0.0312714 	-0.000616786 	-0.00172028 	0
0.0317181 	-0.000648486 	-0.00198997 	0
0.0321648 	-0.000680185 	-0.00225965 	0
0.0326116 	-0.000714234 	-0.00254093 	0
0.0330583 	-0.00074855 	-0.00282404 	0
0.033505 	-0.000784076 	-0.00311336 	0
0.0339518 	-0.000821314 	-0.00341295 	0
0.0343985 	-0.000858552 	-0.00371255 	0
0.0348452 	-0.000898731 	-0.00402901 	0
0.035292 	-0.000939135 	-0.00434755 	0
0.0357387 	-0.000981019 	-0.0046744 	0
0.0361854 	-0.00102476 	-0.00501356 	0
0.0366322 	-0.0010685 	-0.00535272 	0
0.0370789 	-0.00111551 	-0.00571141 	0
0.0375256 	-0.00116266 	-0.00607189 	0
0.0379724 	-0.00121142 	-0.00644132 	-1.05497e-26
0.0384191 	-0.00126197 	-0.00682267 	-3.67542e-26
0.0388658 	-0.00131252 	-0.00720401 	-6.29588e-26
0.0393126 	-0.00136628 	-0.00760331 	-8.75749e-26
0.0397593 	-0.00142007 	-0.00800369 	-1.13327e-25
0.040206 	-0.00147536 	-0.00841121 	-1.12483e-25
0.0406528 	-0.00153211 	-0.0088272 	-7.87328e-26
0.0410995 	-0.00158886 	-0.00924319 	-4.49829e-26
0.0415462 	-0.00164815 	-0.00966925 	-1.20141e-26
0.041993 	-0.0017074 	-0.0100956 	2.1075e-26
0.0424397 	-0.00176763 	-0.0105234 	3.4253e-26
0.0428864 	-0.00182872 	-0.0109527 	2.67077e-26
0.0433332 	-0.00188982 	-0.011382 	1.88601e-26
0.0437799 	-0.00195193 	-0.0118048 	1.0841e-26
0.0442266 	-0.00201398 	-0.0122274 	3.50405e-27
0.0446734 	-0.00207599 	-0.0126405 	-3.764e-27
0.0451201 	-0.00213784 	-0.013044 	-1.16452e-26
0.0455668 	-0.00219965 	-0.0134469 	-2.02185e-26
0.0460136 	-0.00225969 	-0.0138155 	-2.9246e-26
0.0464603 	-0.0023197 	-0.0141839 	-3.79137e-26
0.046907 	-0.00237753 	-0.0145234 	-3.80165e-26
0.0473538 	-0.00243348 	-0.0148363 	-3.01353e-26
0.0478005 	-0.00248904 	-0.0151463 	-2.10415e-26
0.0482472 	-0.00253796 	-0.0153786 	-1.23739e-26
0.048694 	-0.00258689 	-0.0156109 	-3.7062e-27
0.0491407 	-0.00263003 	-0.0157836 	0
0.0495874 	-0.00266887 	-0.0159076 	0
0.0500342 	-0.00270662 	-0.0160232 	1.3838e-27
0.0504809 	-0.0027344 	-0.0160153 	3.59012e-26
0.0509276 	-0.00276218 	-0.0160074 	7.04185e-26
0.0513744 	-0.00278422 	-0.0159181 	1.14661e-25
0.0518211 	-0.00280296 	-0.0157689 	1.5838e-25
0.0522678 	-0.00282058 	-0.0156068 	1.96695e-25
0.0527146 	-0.00283299 	-0.0153065 	1.62178e-25
0.0531613 	-0.00284539 	-0.0150062 	1.27661e-25
0.053608 	-0.00284389 	-0.0145437 	8.15384e-26
0.0540548 	-0.00283395 	-0.0139697 	3.78202e-26
0.0545015 	-0.00280468 	-0.0133225 	0
0.0549482 	-0.002628 	-0.0120745 	0
0.055395 	-0.00245132 	-0.0108266 	0
0.0558417 	-0.00203691 	-0.00886334 	0
0.0562884 	-0.00148874 	-0.00647536 	0
0.0567352 	-0.000953888 	-0.00414334 	0
0.0571819 	-0.000556099 	-0.00249492 	0
0.0576286 	-0.00015831 	-0.000846495 	0
0.0580754 	-2.10312e-05 	-0.00022719 	0
0.0585221 	-9.62437e-06 	-0.000102402 	0
0.0589688 	-3.31956e-07 	-6.7118e-07 	0
0.0594156 	-3.44687e-07 	-5.69391e-07 	0
0.0598623 	-3.57419e-07 	-4.67602e-07 	0
0.060309 	-3.27973e-07 	-4.103e-07 	0
0.0607558 	-2.85479e-07 	-3.71808e-07 	0
0.0612025 	-2.46363e-07 	-3.37886e-07 	0
0.0616492 	-2.25331e-07 	-3.20688e-07 	0
0.062096 	-2.043e-07 	-3.03489e-07 	0
0.0625427 	-1.88931e-07 	-2.9281e-07 	0
0.0629894 	-1.76307e-07 	-2.84599e-07 	0
0.0634362 	-1.64374e-07 	-2.77398e-07 	0
0.0638829 	-1.55448e-07 	-2.73464e-07 	0
0.0643296 	-1.46522e-07 	-2.6953e-07 	0
0.0647764 	-1.38922e-07 	-2.67295e-07 	0
0.0652231 	-1.31892e-07 	-2.65633e-07 	0
0.0656698 	-1.25108e-07 	-2.64321e-07 	0
0.0661166 	-1.19235e-07 	-2.64006e-07 	0
0.0665633 	-1.13361e-07 	-2.6369e-07 	0
0.0670101 	-1.08083e-07 	-2.64065e-07 	0
0.0674568 	-1.03028e-07 	-2.64641e-07 	0
0.0679035 	-9.8128e-08 	-2.65406e-07 	0
0.0683503 	-9.37143e-08 	-2.66639e-07 	0
0.068797 	-8.93006e-08 	-2.67872e-07 	0
0.0692437 	-8.52848e-08 	-2.69528e-07 	0
0.0696905 	-8.13994e-08 	-2.7129e-07 	0
0.0701372 	-7.76324e-08 	-2.73193e-07 	0
0.0705839 	-7.41936e-08 	-2.75411e-07 	0
0.0710307 	-7.07548e-08 	-2.7763e-07 	0
0.0714774 	-6.7612e-08 	-2.80187e-07 	0
0.0719241 	-6.45544e-08 	-2.82819e-07 	0
0.0723709 	-6.15905e-08 	-2.85578e-07 	0
0.0728176 	-5.88595e-08 	-2.88596e-07 	0
0.0732643 	-5.61285e-08 	-2.91614e-07 	0
0.0737111 	-5.362e-08 	-2.94942e-07 	0
0.0741578 	-5.11685e-08 	-2.98329e-07 	0
0.0746045 	-4.87897e-08 	-3.01841e-07 	5.52855e-30
0.0750513 	-4.65768e-08 	-3.05586e-07 	2.30745e-29
0.075498 	-4.4364e-08 	-3.0933e-07 	4.06204e-29
0.0759447 	-4.23161e-08 	-3.13376e-07 	6.34516e-29
0.0763915 	-4.03064e-08 	-3.1747e-07 	8.45331e-29
0.0768382 	-3.83513e-08 	-3.21692e-07 	9.21668e-29
0.0772849 	-3.65134e-08 	-3.26131e-07 	7.46208e-29
0.0777317 	-3.46755e-08 	-3.30569e-07 	5.70749e-29
0.0781784 	-3.29563e-08 	-3.3531e-07 	3.35215e-29
0.0786251 	-3.12626e-08 	-3.40089e-07 	1.244e-29
0.0790719 	-2.96079e-08 	-3.45003e-07 	0
0.0795186 	-2.80341e-08 	-3.50122e-07 	0
0.0799653 	-2.64603e-08 	-3.55241e-07 	0
0.0804121 	-2.49671e-08 	-3.60667e-07 	0
0.0808588 	-2.34911e-08 	-3.66124e-07 	0
0.0813055 	-2.20399e-08 	-3.71722e-07 	2.59167e-29
0.0817523 	-2.06421e-08 	-3.77517e-07 	9.23546e-29
0.082199 	-1.92443e-08 	-3.83312e-07 	1.58792e-28
0.0826457 	-1.78945e-08 	-3.89421e-07 	2.31311e-28
0.0830925 	-1.65567e-08 	-3.95554e-07 	3.01044e-28
0.0835392 	-1.52303e-08 	-4.01837e-07 	2.81377e-28
0.0839859 	-1.39358e-08 	-4.08308e-07 	1.42569e-28
0.0844327 	-1.26413e-08 	-4.1478e-07 	3.76126e-30
0.0848794 	-1.13655e-08 	-4.21575e-07 	-1.46697e-28
0.0853261 	-1.00985e-08 	-4.28386e-07 	-2.90779e-28
0.0857729 	-8.82989e-09 	-4.35355e-07 	-3.33318e-28
0.0862196 	-7.57556e-09 	-4.42507e-07 	-2.60948e-28
0.0866663 	-6.32122e-09 	-4.49659e-07 	-1.88578e-28
0.0871131 	-5.05753e-09 	-4.57134e-07 	-1.10787e-28
0.0875598 	-3.80132e-09 	-4.64618e-07 	-3.64379e-29
0.0880065 	-2.53328e-09 	-3.81035e-07 	0
0.0884533 	-1.26861e-09 	-1.92699e-07 	0
0.0889 	0 	0 	0
