# f_l  POINT_DATA 1560
#  x  y  z  f_l
0.0413703 0.001665 6.42664e-20 0.5
0.0413869 0.00138039 -0.00128202 0.5
0.0413869 0.00138039 0.00128202 0.5
0.0413817 0.00195485 -0.00130561 0.5
0.0413817 0.00195485 0.00130561 0.5
0.0413869 0.00138039 0.0025 0.5
0.0413869 0.00138039 -0.0025 0.5
0.0413817 0.00195485 0.0025 0.5
0.0413817 0.00195485 -0.0025 0.5
0.04143 0.00276785 -1.52587e-21 0.5
0.0414701 0.000756577 0.0025 0.5
0.0414701 0.000756577 -0.0025 0.5
0.0414194 0.00252279 -0.0025 0.5
0.0414194 0.00252279 0.0025 0.5
0.0414979 0.00111 0.0025 0.5
0.0414979 0.00111 -0.0025 0.5
0.0415921 0.000529682 0 0.5
0.0414811 0.00222 0.0025 0.5
0.0414811 0.00222 -0.0025 0.5
0.0414409 0.00300575 -0.0025 0.5
0.0414409 0.00300575 0.0025 0.5
0.0415834 0.000466629 0.0025 0.5
0.0415834 0.000466629 -0.0025 0.5
0.0415114 0.00387892 -1.39285e-19 0.5
0.0415024 0.00371574 0.0025 0.5
0.0415024 0.00371574 -0.0025 0.5
0.0415398 0.00333 0.0025 0.5
0.0415398 0.00333 -0.0025 0.5
0.0415207 0.00403601 0.0025 0.5
0.0415207 0.00403601 -0.0025 0.5
0.0417603 0.000466629 0.0025 0.5
0.0417603 0.000466629 -0.0025 0.5
0.0416098 0.00444 0.0025 0.5
0.0416098 0.00444 -0.0025 0.5
0.0416366 0.00501491 6.93112e-22 0.5
0.0416308 0.00495397 -0.0025 0.5
0.0416308 0.00495397 0.0025 0.5
0.0416366 0.00503028 -0.0025 0.5
0.0416366 0.00503028 0.0025 0.5
0.041693 0.00555 0.0025 0.5
0.041693 0.00555 -0.0025 0.5
0.0417916 0.0061109 -2.23e-21 0.5
0.0417832 0.00599384 -0.0025 0.5
0.0417832 0.00599384 0.0025 0.5
0.0422275 0.000679015 -0.0025 0.5
0.0422275 0.000679015 0.0025 0.5
0.0418009 0.00623387 -0.0025 0.5
0.0418009 0.00623387 0.0025 0.5
0.0417865 0.00666 0.0025 0.5
0.0417865 0.00666 -0.0025 0.5
0.0419257 0.0072269 -2.95106e-21 0.5
0.0419085 0.00697864 -0.0025 0.5
0.0419085 0.00697864 0.0025 0.5
0.0425053 0.0002775 0.0025 0.5
0.0425053 0.0002775 -0.0025 0.5
0.0418876 0.00777 0.0025 0.5
0.0418876 0.00777 -0.0025 0.5
0.0419442 0.00748706 -0.0025 0.5
0.0419442 0.00748706 0.0025 0.5
0.0427831 0.0002775 -6.27343e-20 0.5
0.0420119 0.00798534 0.00152999 0.5
0.0420119 0.00798534 -0.00152999 0.5
0.0420119 0.00798534 0.0025 0.5
0.0420119 0.00798534 -0.0025 0.5
0.0420335 0.008325 2.54775e-20 0.5
0.0420573 0.00870995 -0.00173401 0.5
0.0420573 0.00870995 0.00173401 0.5
0.0419907 0.00888 0.0025 0.5
0.0419907 0.00888 -0.0025 0.5
0.0420573 0.00870995 0.0025 0.5
0.0420573 0.00870995 -0.0025 0.5
0.0420927 0.00901468 0.00189333 0.5
0.0420927 0.00901468 -0.00189333 0.5
0.0420927 0.00901468 0.0025 0.5
0.0420927 0.00901468 -0.0025 0.5
0.0430609 0.0002775 0.0025 0.5
0.0430609 0.0002775 -0.0025 0.5
0.0421157 0.009435 1.40741e-19 0.5
0.042085 0.00999 0.0025 0.5
0.042085 0.00999 -0.0025 0.5
0.0421377 0.0099003 -0.00209597 0.5
0.0421377 0.0099003 0.00209597 0.5
0.0421377 0.0099003 -0.0025 0.5
0.0421377 0.0099003 0.0025 0.5
0.0421525 0.0100649 0.0021627 0.5
0.0421525 0.0100649 -0.0021627 0.5
0.0421525 0.0100649 0.0025 0.5
0.0421525 0.0100649 -0.0025 0.5
0.0433388 0.000555 -0.0025 0.5
0.0433388 0.000555 0.0025 0.5
0.0421732 0.010545 9.97676e-21 0.5
0.0422275 0.0108316 -0.0025 0.5
0.0422275 0.0108316 0.0025 0.5
0.0436166 0.0002775 0.0025 0.5
0.0436166 0.0002775 -0.0025 0.5
0.0422493 0.0110782 -0.00240178 0.5
0.0422493 0.0110782 0.00240178 0.5
0.0422493 0.0110782 0.0025 0.5
0.0422493 0.0110782 -0.0025 0.5
0.042264 0.0111364 -0.00233583 0.5
0.042264 0.0111364 0.00233583 0.5
0.042264 0.0111364 0.0025 0.5
0.042264 0.0111364 -0.0025 0.5
0.042276 0.0111 0.0025 0.5
0.042276 0.0111 -0.0025 0.5
0.0438944 0.0002775 -5.5916e-20 0.5
0.0423536 0.011655 3.36298e-20 0.5
0.0424132 0.0120245 -0.00166425 0.5
0.0424132 0.0120245 0.00166425 0.5
0.0424132 0.0120245 0.0025 0.5
0.0424132 0.0120245 -0.0025 0.5
0.0441722 0.0002775 0.0025 0.5
0.0441722 0.0002775 -0.0025 0.5
0.0425599 0.01221 0.0025 0.5
0.0425599 0.01221 -0.0025 0.5
0.0425894 0.0125715 0.0025 0.5
0.0425894 0.0125715 -0.0025 0.5
0.0426393 0.0127936 8.06592e-20 0.5
0.04445 0.000555 0.0025 0.5
0.04445 0.000555 -0.0025 0.5
0.0426543 0.0128937 -0.0025 0.5
0.0426543 0.0128937 0.0025 0.5
0.0447278 0.0002775 0.0025 0.5
0.0447278 0.0002775 -0.0025 0.5
0.0428058 0.01332 0.0025 0.5
0.0428058 0.01332 -0.0025 0.5
0.0450056 0.0002775 0 0.5
0.042972 0.0136863 -0.0025 0.5
0.042972 0.0136863 0.0025 0.5
0.0430044 0.0138972 2.60051e-22 0.5
0.0452834 0.0002775 0.0025 0.5
0.0452834 0.0002775 -0.0025 0.5
0.0430388 0.0141304 0.0025 0.5
0.0430388 0.0141304 -0.0025 0.5
0.0430181 0.01443 0.0025 0.5
0.0430181 0.01443 -0.0025 0.5
0.0431583 0.0146103 0.001688 0.5
0.0431583 0.0146103 -0.001688 0.5
0.0431583 0.0146103 0.0025 0.5
0.0431583 0.0146103 -0.0025 0.5
0.0455612 0.000555 -0.0025 0.5
0.0455612 0.000555 0.0025 0.5
0.0431998 0.014985 -4.73503e-20 0.5
0.0458391 0.0002775 0.0025 0.5
0.0458391 0.0002775 -0.0025 0.5
0.0432851 0.0154864 -0.00225878 0.5
0.0432851 0.0154864 0.00225878 0.5
0.043262 0.01554 0.0025 0.5
0.043262 0.01554 -0.0025 0.5
0.0432851 0.0154864 0.0025 0.5
0.0432851 0.0154864 -0.0025 0.5
0.0433001 0.0155787 0.00232588 0.5
0.0433001 0.0155787 -0.00232588 0.5
0.0433001 0.0155787 0.0025 0.5
0.0433001 0.0155787 -0.0025 0.5
0.0461169 0.0002775 0 0.5
0.0433388 0.0157567 0.0025 0.5
0.0433388 0.0157567 -0.0025 0.5
0.0433898 0.016095 -1.67268e-20 0.5
0.0463947 0.0002775 0.0025 0.5
0.0463947 0.0002775 -0.0025 0.5
0.0434891 0.0164998 -0.00182353 0.5
0.0434891 0.0164998 0.00182353 0.5
0.0434891 0.0164998 0.0025 0.5
0.0434891 0.0164998 -0.0025 0.5
0.0466725 0.000555 -0.0025 0.5
0.0466725 0.000555 0.0025 0.5
0.0436443 0.01665 0.0025 0.5
0.0436443 0.01665 -0.0025 0.5
0.0469503 0.0002775 0.0025 0.5
0.0469503 0.0002775 -0.0025 0.5
0.0437739 0.0170847 0.0025 0.5
0.0437739 0.0170847 -0.0025 0.5
0.0438174 0.0172076 2.28661e-22 0.5
0.0438333 0.0172661 0.0025 0.5
0.0438333 0.0172661 -0.0025 0.5
0.0472281 0.0002775 -1.94461e-21 0.5
0.0439981 0.01776 0.0025 0.5
0.0439981 0.01776 -0.0025 0.5
0.0475059 0.0002775 0.0025 0.5
0.0475059 0.0002775 -0.0025 0.5
0.0441875 0.0180222 -0.00131886 0.5
0.0441875 0.0180222 0.00131886 0.5
0.0441875 0.0180222 0.0025 0.5
0.0441875 0.0180222 -0.0025 0.5
0.0477837 0.000555 -0.0025 0.5
0.0477837 0.000555 0.0025 0.5
0.0442405 0.018315 -1.02676e-19 0.5
0.0442924 0.0187126 0.00179078 0.5
0.0442924 0.0187126 -0.00179078 0.5
0.0480616 0.0002775 0.0025 0.5
0.0480616 0.0002775 -0.0025 0.5
0.0442924 0.0187126 0.0025 0.5
0.0442924 0.0187126 -0.0025 0.5
0.0442509 0.01887 0.0025 0.5
0.0442509 0.01887 -0.0025 0.5
0.0443514 0.0189684 -0.00205654 0.5
0.0443514 0.0189684 0.00205654 0.5
0.0443514 0.0189684 0.0025 0.5
0.0443514 0.0189684 -0.0025 0.5
0.0483394 0.0002775 0 0.5
0.0443987 0.019425 5.17981e-20 0.5
0.04445 0.0194486 0.0025 0.5
0.04445 0.0194486 -0.0025 0.5
0.0486172 0.0002775 0.0025 0.5
0.0486172 0.0002775 -0.0025 0.5
0.0445285 0.0199016 0.00214679 0.5
0.0445285 0.0199016 -0.00214679 0.5
0.0445285 0.0199016 0.0025 0.5
0.0445285 0.0199016 -0.0025 0.5
0.048895 0.000555 -0.0025 0.5
0.048895 0.000555 0.0025 0.5
0.0446413 0.01998 0.0025 0.5
0.0446413 0.01998 -0.0025 0.5
0.0447268 0.0202565 -0.0012546 0.5
0.0447268 0.0202565 0.0012546 0.5
0.0447268 0.0202565 0.0025 0.5
0.0447268 0.0202565 -0.0025 0.5
0.0491728 0.0002775 0.0025 0.5
0.0491728 0.0002775 -0.0025 0.5
0.0448968 0.0206637 -1.58406e-18 0.5
0.0494506 0.0002775 0 0.5
0.0448822 0.0206583 0.0025 0.5
0.0448822 0.0206583 -0.0025 0.5
0.0497284 0.0002775 0.0025 0.5
0.0497284 0.0002775 -0.0025 0.5
0.0450958 0.02109 0.0025 0.5
0.0450958 0.02109 -0.0025 0.5
0.0500063 0.000555 -0.0025 0.5
0.0500063 0.000555 0.0025 0.5
0.0453064 0.0213446 0.00135323 0.5
0.0453064 0.0213446 -0.00135323 0.5
0.0453064 0.0213446 0.0025 0.5
0.0453064 0.0213446 -0.0025 0.5
0.0453728 0.021645 1.35735e-18 0.5
0.0502841 0.0002775 0.0025 0.5
0.0502841 0.0002775 -0.0025 0.5
0.0454319 0.0220708 0.00191784 0.5
0.0454319 0.0220708 -0.00191784 0.5
0.0505619 0.0002775 1.91847e-21 0.5
0.0454319 0.0220708 0.0025 0.5
0.0454319 0.0220708 -0.0025 0.5
0.0453948 0.0222 0.0025 0.5
0.0453948 0.0222 -0.0025 0.5
0.0454826 0.0222786 -0.0021459 0.5
0.0454826 0.0222786 0.0021459 0.5
0.0454826 0.0222786 -0.0025 0.5
0.0454826 0.0222786 0.0025 0.5
0.0508397 0.0002775 0.0025 0.5
0.0508397 0.0002775 -0.0025 0.5
0.0455343 0.022755 1.45635e-18 0.5
0.0455612 0.0226664 -0.0025 0.5
0.0455612 0.0226664 0.0025 0.5
0.0511175 0.000555 -0.0025 0.5
0.0511175 0.000555 0.0025 0.5
0.0456564 0.0232149 -0.00207177 0.5
0.0456564 0.0232149 0.00207177 0.5
0.0456564 0.0232149 0.0025 0.5
0.0456564 0.0232149 -0.0025 0.5
0.0457964 0.02331 0.0025 0.5
0.0457964 0.02331 -0.0025 0.5
0.0513953 0.0002775 0.0025 0.5
0.0513953 0.0002775 -0.0025 0.5
0.0516731 0.0002775 0 0.5
0.0459607 0.023709 -0.0025 0.5
0.0459607 0.023709 0.0025 0.5
0.0460283 0.0238562 1.02786e-18 0.5
0.046055 0.0239268 0.0025 0.5
0.046055 0.0239268 -0.0025 0.5
0.0519509 0.0002775 0.0025 0.5
0.0519509 0.0002775 -0.0025 0.5
0.0522288 0.000555 -0.0025 0.5
0.0522288 0.000555 0.0025 0.5
0.0462773 0.02442 0.0025 0.5
0.0462773 0.02442 -0.0025 0.5
0.0525066 0.0002775 0.0025 0.5
0.0525066 0.0002775 -0.0025 0.5
0.0464776 0.0246147 -0.00162291 0.5
0.0464776 0.0246147 0.00162291 0.5
0.0464776 0.0246147 -0.0025 0.5
0.0464776 0.0246147 0.0025 0.5
0.0527844 0.0002775 0 0.5
0.0465579 0.024975 -1.48667e-18 0.5
0.0530622 0.0002775 0.0025 0.5
0.0530622 0.0002775 -0.0025 0.5
0.0466215 0.025479 -0.00227037 0.5
0.0466215 0.025479 0.00227037 0.5
0.0466215 0.025479 0.0025 0.5
0.0466215 0.025479 -0.0025 0.5
0.0465971 0.02553 0.0025 0.5
0.0465971 0.02553 -0.0025 0.5
0.0466378 0.0255646 0.00234393 0.5
0.0466378 0.0255646 -0.00234393 0.5
0.0466378 0.0255646 0.0025 0.5
0.0466378 0.0255646 -0.0025 0.5
0.0466725 0.025724 -0.0025 0.5
0.0466725 0.025724 0.0025 0.5
0.05334 0.000555 -0.0025 0.5
0.05334 0.000555 0.0025 0.5
0.0466943 0.026085 -1.9828e-19 0.5
0.0536178 0.0002775 -0.0025 0.5
0.0536178 0.0002775 0.0025 0.5
0.0468135 0.0264991 -0.00186554 0.5
0.0468135 0.0264991 0.00186554 0.5
0.0468135 0.0264991 0.0025 0.5
0.0468135 0.0264991 -0.0025 0.5
0.0538956 0.0002775 0 0.5
0.0470217 0.02664 0.0025 0.5
0.0470217 0.02664 -0.0025 0.5
0.0541734 0.0002775 0.0025 0.5
0.0541734 0.0002775 -0.0025 0.5
0.0544513 0.000555 -0.0025 0.5
0.0544513 0.000555 0.0025 0.5
0.0473443 0.0270789 0.0025 0.5
0.0473443 0.0270789 -0.0025 0.5
0.0473818 0.0271981 -2.33934e-21 0.5
0.0547291 0.0002775 0.0025 0.5
0.0547291 0.0002775 -0.0025 0.5
0.0474597 0.0274263 0.0025 0.5
0.0474597 0.0274263 -0.0025 0.5
0.0550069 0.0002775 -5.58287e-21 0.5
0.0475016 0.02775 0.0025 0.5
0.0475016 0.02775 -0.0025 0.5
0.0476503 0.0278833 0.0018996 0.5
0.0476503 0.0278833 -0.0018996 0.5
0.0476503 0.0278833 0.0025 0.5
0.0476503 0.0278833 -0.0025 0.5
0.0552847 0.0002775 0.0025 0.5
0.0552847 0.0002775 -0.0025 0.5
0.0477231 0.028305 1.25225e-21 0.5
0.0555625 0.000555 -0.0025 0.5
0.0555625 0.000555 0.0025 0.5
0.0477837 0.0287795 0.0025 0.5
0.0477837 0.0287795 -0.0025 0.5
0.0477946 0.0288492 0.00245133 0.5
0.0477946 0.0288492 -0.00245133 0.5
0.0477946 0.0288492 0.0025 0.5
0.0477946 0.0288492 -0.0025 0.5
0.0477986 0.0288748 0.00243326 0.5
0.0477986 0.0288748 -0.00243326 0.5
0.0558403 0.0002775 0.0025 0.5
0.0558403 0.0002775 -0.0025 0.5
0.047807 0.02886 0.0025 0.5
0.047807 0.02886 -0.0025 0.5
0.0477986 0.0288748 0.0025 0.5
0.0477986 0.0288748 -0.0025 0.5
0.0561181 0.0002775 0 0.5
0.0478728 0.029415 3.82002e-20 0.5
0.0563959 0.0002775 0.0025 0.5
0.0563959 0.0002775 -0.0025 0.5
0.0479806 0.0297734 -0.00161421 0.5
0.0479806 0.0297734 0.00161421 0.5
0.0479806 0.0297734 0.0025 0.5
0.0479806 0.0297734 -0.0025 0.5
0.0566738 0.000555 -0.0025 0.5
0.0566738 0.000555 0.0025 0.5
0.0482251 0.02997 0.0025 0.5
0.0482251 0.02997 -0.0025 0.5
0.0569516 0.0002775 0.0025 0.5
0.0569516 0.0002775 -0.0025 0.5
0.0485099 0.0303429 1.8002e-20 0.5
0.0572294 0.0002775 0 0.5
0.0485291 0.0303355 0.0025 0.5
0.0485291 0.0303355 -0.0025 0.5
0.0575072 0.0002775 0.0025 0.5
0.0575072 0.0002775 -0.0025 0.5
0.0486731 0.0308583 -0.00150135 0.5
0.0486731 0.0308583 0.00150135 0.5
0.0486731 0.0308583 0.0025 0.5
0.0486731 0.0308583 -0.0025 0.5
0.048664 0.03108 -0.0025 0.5
0.048664 0.03108 0.0025 0.5
0.057785 0.000555 -0.0025 0.5
0.057785 0.000555 0.0025 0.5
0.0487865 0.0311884 0.00201169 0.5
0.0487865 0.0311884 -0.00201169 0.5
0.0487865 0.0311884 0.0025 0.5
0.0487865 0.0311884 -0.0025 0.5
0.0580628 0.0002775 0.0025 0.5
0.0580628 0.0002775 -0.0025 0.5
0.048852 0.031635 -8.11059e-21 0.5
0.0583406 0.0002775 0 0.5
0.048895 0.031895 -0.0025 0.5
0.048895 0.031895 0.0025 0.5
0.0489339 0.0321512 -0.00232507 0.5
0.0489339 0.0321512 0.00232507 0.5
0.0489339 0.0321512 0.0025 0.5
0.0489339 0.0321512 -0.0025 0.5
0.0489817 0.03219 0.0025 0.5
0.0489817 0.03219 -0.0025 0.5
0.0586184 0.0002775 0.0025 0.5
0.0586184 0.0002775 -0.0025 0.5
0.0489613 0.0322562 -0.00220168 0.5
0.0489613 0.0322562 0.00220168 0.5
0.0489613 0.0322562 0.0025 0.5
0.0489613 0.0322562 -0.0025 0.5
0.0588963 0.000555 -0.0025 0.5
0.0588963 0.000555 0.0025 0.5
0.0490539 0.032745 1.38354e-20 0.5
0.0591741 0.0002775 0.0025 0.5
0.0591741 0.0002775 -0.0025 0.5
0.049143 0.0330523 -0.00138424 0.5
0.049143 0.0330523 0.00138424 0.5
0.049143 0.0330523 0.0025 0.5
0.049143 0.0330523 -0.0025 0.5
0.0594519 0.0002775 -7.45167e-21 0.5
0.0493924 0.0333 0.0025 0.5
0.0493924 0.0333 -0.0025 0.5
0.0597297 0.0002775 0.0025 0.5
0.0597297 0.0002775 -0.0025 0.5
0.0496407 0.0336417 -4.30893e-21 0.5
0.0496644 0.0336414 0.0025 0.5
0.0496644 0.0336414 -0.0025 0.5
0.0600075 0.000555 -0.0025 0.5
0.0600075 0.000555 0.0025 0.5
0.0602853 0.0002775 0.0025 0.5
0.0602853 0.0002775 -0.0025 0.5
0.0497979 0.0342019 -0.00156262 0.5
0.0497979 0.0342019 0.00156262 0.5
0.0497979 0.0342019 0.0025 0.5
0.0497979 0.0342019 -0.0025 0.5
0.0497759 0.03441 0.0025 0.5
0.0497759 0.03441 -0.0025 0.5
0.0605631 0.0002775 -9.93434e-23 0.5
0.0498947 0.0345214 0.00199814 0.5
0.0498947 0.0345214 -0.00199814 0.5
0.0498947 0.0345214 0.0025 0.5
0.0498947 0.0345214 -0.0025 0.5
0.0608409 0.0002775 0.0025 0.5
0.0608409 0.0002775 -0.0025 0.5
0.0499531 0.034965 0 0.5
0.0611187 0.000555 -0.0025 0.5
0.0611187 0.000555 0.0025 0.5
0.0499783 0.0354921 -0.00237431 0.5
0.0499783 0.0354921 0.00237431 0.5
0.0499577 0.03552 0.0025 0.5
0.0499577 0.03552 -0.0025 0.5
0.0499783 0.0354921 0.0025 0.5
0.0499783 0.0354921 -0.0025 0.5
0.049983 0.0355432 0.00239534 0.5
0.049983 0.0355432 -0.00239534 0.5
0.049983 0.0355432 -0.0025 0.5
0.049983 0.0355432 0.0025 0.5
0.0613966 0.0002775 -0.0025 0.5
0.0613966 0.0002775 0.0025 0.5
0.0500063 0.0357238 -0.0025 0.5
0.0500063 0.0357238 0.0025 0.5
0.0500062 0.036075 0 0.5
0.0616744 0.0002775 0 0.5
0.0619522 0.0002775 -0.0025 0.5
0.0619522 0.0002775 0.0025 0.5
0.0500966 0.0365397 -0.00209339 0.5
0.0500966 0.0365397 0.00209339 0.5
0.0500966 0.0365397 0.0025 0.5
0.0500966 0.0365397 -0.0025 0.5
0.0502221 0.03663 0.0025 0.5
0.0502221 0.03663 -0.0025 0.5
0.06223 0.000555 -0.0025 0.5
0.06223 0.000555 0.0025 0.5
0.0502649 0.0368884 -0.00133614 0.5
0.0502649 0.0368884 0.00133614 0.5
0.0502649 0.0368884 0.0025 0.5
0.0502649 0.0368884 -0.0025 0.5
0.0625078 0.0002775 0.0025 0.5
0.0625078 0.0002775 -0.0025 0.5
0.0504233 0.037348 0 0.5
0.0504047 0.037342 0.0025 0.5
0.0504047 0.037342 -0.0025 0.5
0.0627856 0.0002775 3.76374e-21 0.5
0.0630634 0.0002775 -0.0025 0.5
0.0630634 0.0002775 0.0025 0.5
0.0506345 0.03774 0.0025 0.5
0.0506345 0.03774 -0.0025 0.5
0.0633413 0.000555 -0.0025 0.5
0.0633413 0.000555 0.0025 0.5
0.0508548 0.0380024 0.00131792 0.5
0.0508548 0.0380024 -0.00131792 0.5
0.0508548 0.0380024 0.0025 0.5
0.0508548 0.0380024 -0.0025 0.5
0.0636191 0.0002775 0.0025 0.5
0.0636191 0.0002775 -0.0025 0.5
0.0509246 0.038295 -3.04663e-20 0.5
0.0638969 0.0002775 -5.95927e-22 0.5
0.0509793 0.0387119 -0.00187803 0.5
0.0509793 0.0387119 0.00187803 0.5
0.0509793 0.0387119 0.0025 0.5
0.0509793 0.0387119 -0.0025 0.5
0.0509392 0.03885 0.0025 0.5
0.0509392 0.03885 -0.0025 0.5
0.0510313 0.0389361 0.00211201 0.5
0.0510313 0.0389361 -0.00211201 0.5
0.0641747 0.0002775 0.0025 0.5
0.0641747 0.0002775 -0.0025 0.5
0.0510313 0.0389361 0.0025 0.5
0.0510313 0.0389361 -0.0025 0.5
0.0644525 0.000555 -0.0025 0.5
0.0644525 0.000555 0.0025 0.5
0.05108 0.039405 0 0.5
0.0647303 0.0002775 0.0025 0.5
0.0647303 0.0002775 -0.0025 0.5
0.0510981 0.0399406 -0.00241269 0.5
0.0510981 0.0399406 0.00241269 0.5
0.0510824 0.03996 0.0025 0.5
0.0510824 0.03996 -0.0025 0.5
0.0510981 0.0399406 0.0025 0.5
0.0510981 0.0399406 -0.0025 0.5
0.0511005 0.039977 0.00242339 0.5
0.0511005 0.039977 -0.00242339 0.5
0.0511005 0.039977 0.0025 0.5
0.0511005 0.039977 -0.0025 0.5
0.0650081 0.0002775 0 0.5
0.0511175 0.0403448 -0.0025 0.5
0.0511175 0.0403448 0.0025 0.5
0.0511175 0.040515 -2.1395e-20 0.5
0.0652859 0.0002775 0.0025 0.5
0.0652859 0.0002775 -0.0025 0.5
0.0655638 0.000555 -0.0025 0.5
0.0655638 0.000555 0.0025 0.5
0.0511487 0.0410388 -0.00235944 0.5
0.0511487 0.0410388 0.00235944 0.5
0.0511487 0.0410388 0.0025 0.5
0.0511487 0.0410388 -0.0025 0.5
0.0511578 0.0411103 -0.00231865 0.5
0.0511578 0.0411103 0.00231865 0.5
0.0511837 0.04107 0.0025 0.5
0.0511837 0.04107 -0.0025 0.5
0.0511578 0.0411103 0.0025 0.5
0.0511578 0.0411103 -0.0025 0.5
0.0658416 0.0002775 0.0025 0.5
0.0658416 0.0002775 -0.0025 0.5
0.0511927 0.041625 2.82014e-20 0.5
0.0661194 0.0002775 -1.81913e-21 0.5
0.0512747 0.0420229 -0.00179253 0.5
0.0512747 0.0420229 0.00179253 0.5
0.0512747 0.0420229 -0.0025 0.5
0.0512747 0.0420229 0.0025 0.5
0.0663972 0.0002775 0.0025 0.5
0.0663972 0.0002775 -0.0025 0.5
0.0514516 0.04218 0.0025 0.5
0.0514516 0.04218 -0.0025 0.5
0.066675 0.000555 -0.0025 0.5
0.066675 0.000555 0.0025 0.5
0.0669528 0.0002775 0.0025 0.5
0.0669528 0.0002775 -0.0025 0.5
0.051614 0.0426759 0.0025 0.5
0.051614 0.0426759 -0.0025 0.5
0.0516344 0.0427381 0 0.5
0.0516413 0.0427668 0.0025 0.5
0.0516413 0.0427668 -0.0025 0.5
0.0672306 0.0002775 9.10876e-20 0.5
0.051773 0.04329 0.0025 0.5
0.051773 0.04329 -0.0025 0.5
0.0675084 0.0002775 0.0025 0.5
0.0675084 0.0002775 -0.0025 0.5
0.0677863 0.000555 -0.0025 0.5
0.0677863 0.000555 0.0025 0.5
0.0519458 0.0435727 0.0025 0.5
0.0519458 0.0435727 -0.0025 0.5
0.0519598 0.0436634 -3.41708e-20 0.5
0.0680641 0.0002775 0.0025 0.5
0.0680641 0.0002775 -0.0025 0.5
0.0520205 0.044192 -0.00156317 0.5
0.0520205 0.044192 0.00156317 0.5
0.0520205 0.044192 0.0025 0.5
0.0520205 0.044192 -0.0025 0.5
0.0683419 0.0002775 1.14121e-19 0.5
0.0519656 0.0444 0.0025 0.5
0.0519656 0.0444 -0.0025 0.5
0.0520816 0.044547 0.0018379 0.5
0.0520816 0.044547 -0.0018379 0.5
0.0520816 0.044547 0.0025 0.5
0.0520816 0.044547 -0.0025 0.5
0.0686197 0.0002775 0.0025 0.5
0.0686197 0.0002775 -0.0025 0.5
0.0521139 0.044955 0 0.5
0.0688975 0.000555 -0.0025 0.5
0.0688975 0.000555 0.0025 0.5
0.0521365 0.0454178 0.00208485 0.5
0.0521365 0.0454178 -0.00208485 0.5
0.0521365 0.0454178 0.0025 0.5
0.0521365 0.0454178 -0.0025 0.5
0.0520833 0.04551 0.0025 0.5
0.0520833 0.04551 -0.0025 0.5
0.0691753 0.0002775 0.0025 0.5
0.0691753 0.0002775 -0.0025 0.5
0.0521522 0.0455865 0.00215542 0.5
0.0521522 0.0455865 -0.00215542 0.5
0.0521522 0.0455865 0.0025 0.5
0.0521522 0.0455865 -0.0025 0.5
0.0694531 0.0002775 9.36031e-20 0.5
0.0521734 0.046065 0 0.5
0.0697309 0.0002775 0.0025 0.5
0.0697309 0.0002775 -0.0025 0.5
0.0521859 0.0465772 -0.00230707 0.5
0.0521859 0.0465772 0.00230707 0.5
0.0521859 0.0465772 0.0025 0.5
0.0521859 0.0465772 -0.0025 0.5
0.0521527 0.04662 0.0025 0.5
0.0521527 0.04662 -0.0025 0.5
0.0521898 0.046659 0.00232453 0.5
0.0521898 0.046659 -0.00232453 0.5
0.0521898 0.046659 0.0025 0.5
0.0521898 0.046659 -0.0025 0.5
0.0700088 0.000555 -0.0025 0.5
0.0700088 0.000555 0.0025 0.5
0.0702866 0.0002775 0.0025 0.5
0.0702866 0.0002775 -0.0025 0.5
0.0522017 0.047175 0 0.5
0.0705644 0.0002775 2.66209e-19 0.5
0.0522079 0.0477091 0.00240607 0.5
0.0522079 0.0477091 -0.00240607 0.5
0.0522079 0.0477091 0.0025 0.5
0.0522079 0.0477091 -0.0025 0.5
0.0521894 0.04773 0.0025 0.5
0.0521894 0.04773 -0.0025 0.5
0.0522088 0.0477499 0.00241025 0.5
0.0522088 0.0477499 -0.00241025 0.5
0.0522088 0.0477499 -0.0025 0.5
0.0522088 0.0477499 0.0025 0.5
0.0708422 0.0002775 0.0025 0.5
0.0708422 0.0002775 -0.0025 0.5
0.0522148 0.048285 -9.75214e-20 0.5
0.07112 0.000555 -0.0025 0.5
0.07112 0.000555 0.0025 0.5
0.0713978 0.0002775 0.0025 0.5
0.0713978 0.0002775 -0.0025 0.5
0.0522176 0.0488289 -0.00244993 0.5
0.0522176 0.0488289 0.00244993 0.5
0.0522071 0.04884 0.0025 0.5
0.0522071 0.04884 -0.0025 0.5
0.0522176 0.0488289 0.0025 0.5
0.0522176 0.0488289 -0.0025 0.5
0.0522178 0.0488509 -0.00245093 0.5
0.0522178 0.0488509 0.00245093 0.5
0.0522178 0.0488509 0.0025 0.5
0.0522178 0.0488509 -0.0025 0.5
0.0716756 0.0002775 9.36031e-20 0.5
0.0522206 0.049395 2.96748e-21 0.5
0.0719534 0.0002775 0.0025 0.5
0.0719534 0.0002775 -0.0025 0.5
0.0722313 0.000555 -0.0025 0.5
0.0722313 0.000555 0.0025 0.5
0.0522219 0.0499431 -0.00246911 0.5
0.0522219 0.0499431 0.00246911 0.5
0.0522152 0.04995 0.0025 0.5
0.0522152 0.04995 -0.0025 0.5
0.0522219 0.0499431 0.0025 0.5
0.0522219 0.0499431 -0.0025 0.5
0.0522219 0.0499568 0.0024694 0.5
0.0522219 0.0499568 -0.0024694 0.5
0.0522219 0.0499568 0.0025 0.5
0.0522219 0.0499568 -0.0025 0.5
0.0725091 0.0002775 0.0025 0.5
0.0725091 0.0002775 -0.0025 0.5
0.0522232 0.050505 8.94323e-20 0.5
0.0727869 0.0002775 1.145e-19 0.5
0.0522235 0.0510548 -0.00247647 0.5
0.0522235 0.0510548 0.00247647 0.5
0.0522184 0.05106 0.0025 0.5
0.0522184 0.05106 -0.0025 0.5
0.0522235 0.0510548 -0.0025 0.5
0.0522235 0.0510548 0.0025 0.5
0.0522235 0.0510652 -0.00247652 0.5
0.0522235 0.0510652 0.00247652 0.5
0.0522235 0.0510652 -0.0025 0.5
0.0522235 0.0510652 0.0025 0.5
0.0730647 0.0002775 0.0025 0.5
0.0730647 0.0002775 -0.0025 0.5
0.0733425 0.000555 -0.0025 0.5
0.0733425 0.000555 0.0025 0.5
0.0522238 0.051615 1.32527e-19 0.5
0.0736203 0.0002775 0.0025 0.5
0.0736203 0.0002775 -0.0025 0.5
0.0522239 0.0521651 -0.00247805 0.5
0.0522239 0.0521651 0.00247805 0.5
0.0522239 0.0521651 0.0025 0.5
0.0522239 0.0521651 -0.0025 0.5
0.0522191 0.05217 0.0025 0.5
0.0522191 0.05217 -0.0025 0.5
0.0522239 0.0521749 0.00247806 0.5
0.0522239 0.0521749 -0.00247806 0.5
0.0522239 0.0521749 0.0025 0.5
0.0522239 0.0521749 -0.0025 0.5
0.0738981 0.0002775 1.12679e-19 0.5
0.0522239 0.052725 9.15901e-20 0.5
0.0741759 0.0002775 0.0025 0.5
0.0741759 0.0002775 -0.0025 0.5
0.0744538 0.000555 -0.0025 0.5
0.0744538 0.000555 0.0025 0.5
0.0522239 0.0532751 0.00247798 0.5
0.0522239 0.0532751 -0.00247798 0.5
0.0522239 0.0532751 0.0025 0.5
0.0522239 0.0532751 -0.0025 0.5
0.052219 0.05328 0.0025 0.5
0.052219 0.05328 -0.0025 0.5
0.0522239 0.0532849 0.00247797 0.5
0.0522239 0.0532849 -0.00247797 0.5
0.0522239 0.0532849 0.0025 0.5
0.0522239 0.0532849 -0.0025 0.5
0.0747316 0.0002775 0.0025 0.5
0.0747316 0.0002775 -0.0025 0.5
0.0522238 0.053835 -3.81402e-18 0.5
0.0750094 0.0002775 1.14375e-19 0.5
0.0752872 0.0002775 0.0025 0.5
0.0752872 0.0002775 -0.0025 0.5
0.0522235 0.0543848 -0.00247648 0.5
0.0522235 0.0543848 0.00247648 0.5
0.0522235 0.0543848 0.0025 0.5
0.0522235 0.0543848 -0.0025 0.5
0.0522184 0.05439 0.0025 0.5
0.0522184 0.05439 -0.0025 0.5
0.0522235 0.0543952 0.00247643 0.5
0.0522235 0.0543952 -0.00247643 0.5
0.0522235 0.0543952 0.0025 0.5
0.0522235 0.0543952 -0.0025 0.5
0.075565 0.000555 -0.0025 0.5
0.075565 0.000555 0.0025 0.5
0.0522232 0.054945 3.87619e-18 0.5
0.0758428 0.0002775 0.0025 0.5
0.0758428 0.0002775 -0.0025 0.5
0.0761206 0.0002775 1.14623e-19 0.5
0.0522225 0.0554938 -0.00247189 0.5
0.0522225 0.0554938 0.00247189 0.5
0.0522225 0.0554938 0.0025 0.5
0.0522225 0.0554938 -0.0025 0.5
0.0522164 0.0555 0.0025 0.5
0.0522164 0.0555 -0.0025 0.5
0.0522225 0.0555063 0.00247173 0.5
0.0522225 0.0555063 -0.00247173 0.5
0.0522225 0.0555063 0.0025 0.5
0.0522225 0.0555063 -0.0025 0.5
0.0763984 0.0002775 0.0025 0.5
0.0763984 0.0002775 -0.0025 0.5
0.0522217 0.056055 2.45268e-20 0.5
0.0766763 0.000555 -0.0025 0.5
0.0766763 0.000555 0.0025 0.5
0.0769541 0.0002775 0.0025 0.5
0.0769541 0.0002775 -0.0025 0.5
0.0522202 0.0566014 -0.00246146 0.5
0.0522202 0.0566014 0.00246146 0.5
0.0522202 0.0566014 0.0025 0.5
0.0522202 0.0566014 -0.0025 0.5
0.0522118 0.05661 0.0025 0.5
0.0522118 0.05661 -0.0025 0.5
0.0522201 0.0566187 0.00246103 0.5
0.0522201 0.0566187 -0.00246103 0.5
0.0522201 0.0566187 0.0025 0.5
0.0522201 0.0566187 -0.0025 0.5
0.0772319 0.0002775 1.08196e-19 0.5
0.0522185 0.057165 -2.72566e-18 0.5
0.0775097 0.0002775 0.0025 0.5
0.0775097 0.0002775 -0.0025 0.5
0.0777875 0.000555 -0.0025 0.5
0.0777875 0.000555 0.0025 0.5
0.052215 0.0577063 0.00243819 0.5
0.052215 0.0577063 -0.00243819 0.5
0.052215 0.0577063 0.0025 0.5
0.052215 0.0577063 -0.0025 0.5
0.0522016 0.05772 0.0025 0.5
0.0522016 0.05772 -0.0025 0.5
0.0522146 0.0577341 0.00243654 0.5
0.0522146 0.0577341 -0.00243654 0.5
0.0522146 0.0577341 0.0025 0.5
0.0522146 0.0577341 -0.0025 0.5
0.0780653 0.0002775 0.0025 0.5
0.0780653 0.0002775 -0.0025 0.5
0.0522111 0.058275 4.65129e-19 0.5
0.0783431 0.0002775 8.26565e-20 0.5
0.0786209 0.0002775 0.0025 0.5
0.0786209 0.0002775 -0.0025 0.5
0.0522056 0.0588068 0.00239561 0.5
0.0522056 0.0588068 -0.00239561 0.5
0.0522056 0.0588068 0.0025 0.5
0.0522056 0.0588068 -0.0025 0.5
0.0521833 0.05883 0.0025 0.5
0.0521833 0.05883 -0.0025 0.5
0.0522046 0.0588542 -0.00239115 0.5
0.0522046 0.0588542 0.00239115 0.5
0.0522046 0.0588542 -0.0025 0.5
0.0522046 0.0588542 0.0025 0.5
0.0788988 0.000555 -0.0025 0.5
0.0788988 0.000555 0.0025 0.5
0.0521989 0.059385 2.19076e-18 0.5
0.0791766 0.0002775 0.0025 0.5
0.0791766 0.0002775 -0.0025 0.5
0.0794544 0.0002775 9.54222e-20 0.5
0.0521913 0.0599026 -0.00233146 0.5
0.0521913 0.0599026 0.00233146 0.5
0.0521913 0.0599026 0.0025 0.5
0.0521913 0.0599026 -0.0025 0.5
0.0521566 0.05994 0.0025 0.5
0.0521566 0.05994 -0.0025 0.5
0.052189 0.0599797 0.00232106 0.5
0.052189 0.0599797 -0.00232106 0.5
0.052189 0.0599797 0.0025 0.5
0.052189 0.0599797 -0.0025 0.5
0.0797322 0.0002775 0.0025 0.5
0.0797322 0.0002775 -0.0025 0.5
0.0521811 0.060495 4.77861e-19 0.5
0.08001 0.000555 -0.0025 0.5
0.08001 0.000555 0.0025 0.5
0.0521719 0.0609933 -0.00224437 0.5
0.0521719 0.0609933 0.00224437 0.5
0.0521719 0.0609933 0.0025 0.5
0.0521719 0.0609933 -0.0025 0.5
0.0521222 0.06105 0.0025 0.5
0.0521222 0.06105 -0.0025 0.5
0.0802878 0.0002775 0.0025 0.5
0.0802878 0.0002775 -0.0025 0.5
0.0521675 0.0611112 0.0022244 0.5
0.0521675 0.0611112 -0.0022244 0.5
0.0521675 0.0611112 0.0025 0.5
0.0521675 0.0611112 -0.0025 0.5
0.0805656 0.0002775 1.15842e-19 0.5
0.052158 0.061605 -9.33537e-19 0.5
0.0808434 0.0002775 0.0025 0.5
0.0808434 0.0002775 -0.0025 0.5
0.0521485 0.0620798 -0.00213884 0.5
0.0521485 0.0620798 0.00213884 0.5
0.0521485 0.0620798 0.0025 0.5
0.0521485 0.0620798 -0.0025 0.5
0.0520835 0.06216 0.0025 0.5
0.0520835 0.06216 -0.0025 0.5
0.0811213 0.000555 -0.0025 0.5
0.0811213 0.000555 0.0025 0.5
0.0521416 0.062247 0.00210798 0.5
0.0521416 0.062247 -0.00210798 0.5
0.0521416 0.062247 0.0025 0.5
0.0521416 0.062247 -0.0025 0.5
0.0813991 0.0002775 0.0025 0.5
0.0813991 0.0002775 -0.0025 0.5
0.0521318 0.062715 -2.05078e-20 0.5
0.0816769 0.0002775 9.5745e-20 0.5
0.0521229 0.0631643 -0.00202387 0.5
0.0521229 0.0631643 0.00202387 0.5
0.0521229 0.0631643 0.0025 0.5
0.0521229 0.0631643 -0.0025 0.5
0.052045 0.06327 0.0025 0.5
0.052045 0.06327 -0.0025 0.5
0.0819547 0.0002775 0.0025 0.5
0.0819547 0.0002775 -0.0025 0.5
0.052114 0.0633846 0.00198383 0.5
0.052114 0.0633846 -0.00198383 0.5
0.052114 0.0633846 0.0025 0.5
0.052114 0.0633846 -0.0025 0.5
0.0822325 0.000555 -0.0025 0.5
0.0822325 0.000555 0.0025 0.5
0.052105 0.063825 0 0.5
0.0825103 0.0002775 0.0025 0.5
0.0825103 0.0002775 -0.0025 0.5
0.0520973 0.0642487 -0.00190871 0.5
0.0520973 0.0642487 0.00190871 0.5
0.0520973 0.0642487 0.0025 0.5
0.0520973 0.0642487 -0.0025 0.5
0.0827881 0.0002775 8.32524e-20 0.5
0.05201 0.06438 0.0025 0.5
0.05201 0.06438 -0.0025 0.5
0.0520874 0.0645212 0.00186382 0.5
0.0520874 0.0645212 -0.00186382 0.5
0.0520874 0.0645212 0.0025 0.5
0.0520874 0.0645212 -0.0025 0.5
0.0830659 0.0002775 0.0025 0.5
0.0830659 0.0002775 -0.0025 0.5
0.0520796 0.064935 0 0.5
0.0833437 0.000555 -0.0025 0.5
0.0833437 0.000555 0.0025 0.5
0.0520842 0.0653456 -0.00184967 0.5
0.0520842 0.0653456 0.00184967 0.5
0.0520842 0.0653456 0.0025 0.5
0.0520842 0.0653456 -0.0025 0.5
0.0836216 0.0002775 0.0025 0.5
0.0836216 0.0002775 -0.0025 0.5
0.0520034 0.06549 0.0025 0.5
0.0520034 0.06549 -0.0025 0.5
0.0520904 0.0656282 0.00187767 0.5
0.0520904 0.0656282 -0.00187767 0.5
0.0520904 0.0656282 0.0025 0.5
0.0520904 0.0656282 -0.0025 0.5
0.0838994 0.0002775 3.228e-22 0.5
0.0522288 0.0656772 0.0025 0.5
0.0522288 0.0656772 -0.0025 0.5
0.052095 0.066045 0 0.5
0.0841772 0.0002775 0.0025 0.5
0.0841772 0.0002775 -0.0025 0.5
0.084455 0.000555 -0.0025 0.5
0.084455 0.000555 0.0025 0.5
0.0525066 0.0663225 0.0025 0.5
0.0525066 0.0663225 -0.0025 0.5
0.0527844 0.0663225 0 0.5
0.0847328 0.0002775 0.0025 0.5
0.0847328 0.0002775 -0.0025 0.5
0.05334 0.066045 -0.0025 0.5
0.05334 0.066045 0.0025 0.5
0.0530622 0.0663225 0.0025 0.5
0.0530622 0.0663225 -0.0025 0.5
0.0850106 0.0002775 0 0.5
0.0536178 0.0663225 0.0025 0.5
0.0536178 0.0663225 -0.0025 0.5
0.0852884 0.0002775 0.0025 0.5
0.0852884 0.0002775 -0.0025 0.5
0.0538956 0.0663225 0 0.5
0.0855663 0.000555 -0.0025 0.5
0.0855663 0.000555 0.0025 0.5
0.0544513 0.066045 -0.0025 0.5
0.0544513 0.066045 0.0025 0.5
0.0541734 0.0663225 0.0025 0.5
0.0541734 0.0663225 -0.0025 0.5
0.0858441 0.0002775 0.0025 0.5
0.0858441 0.0002775 -0.0025 0.5
0.0547291 0.0663225 0.0025 0.5
0.0547291 0.0663225 -0.0025 0.5
0.0861219 0.0002775 0 0.5
0.0550069 0.0663225 0 0.5
0.0555625 0.066045 -0.0025 0.5
0.0555625 0.066045 0.0025 0.5
0.0552847 0.0663225 0.0025 0.5
0.0552847 0.0663225 -0.0025 0.5
0.0863997 0.0002775 0.0025 0.5
0.0863997 0.0002775 -0.0025 0.5
0.0866775 0.000555 -0.0025 0.5
0.0866775 0.000555 0.0025 0.5
0.0558403 0.0663225 0.0025 0.5
0.0558403 0.0663225 -0.0025 0.5
0.0561181 0.0663225 0 0.5
0.0869553 0.0002775 0.0025 0.5
0.0869553 0.0002775 -0.0025 0.5
0.0566738 0.066045 -0.0025 0.5
0.0566738 0.066045 0.0025 0.5
0.0563959 0.0663225 0.0025 0.5
0.0563959 0.0663225 -0.0025 0.5
0.0872331 0.0002775 0 0.5
0.0569516 0.0663225 0.0025 0.5
0.0569516 0.0663225 -0.0025 0.5
0.0875109 0.0002775 0.0025 0.5
0.0875109 0.0002775 -0.0025 0.5
0.0572294 0.0663225 0 0.5
0.057785 0.066045 -0.0025 0.5