# vtk DataFile Version 2.0
track0
ASCII
DATASET POLYDATA
POINTS 12075 float
-0.0205 0.001 1e-05
-0.02052 0.000999985 1e-05
-0.02054 0.000999974 1e-05
-0.02056 0.000999965 1e-05
-0.02058 0.000999959 1e-05
-0.0206 0.000999956 1e-05
-0.0205 0.00367778 1e-05
-0.02052 0.00367778 1e-05
-0.02054 0.00367777 1e-05
-0.02056 0.00367777 1e-05
-0.02058 0.00367777 1e-05
-0.0206 0.00367777 1e-05
-0.0205 0.00635556 1e-05
-0.02052 0.00635555 1e-05
-0.02054 0.00635555 1e-05
-0.02056 0.00635555 1e-05
-0.02058 0.00635555 1e-05
-0.0206 0.00635555 1e-05
-0.0205 0.00903333 1e-05
-0.02052 0.00903333 1e-05
-0.02054 0.00903333 1e-05
-0.02056 0.00903333 1e-05
-0.02058 0.00903333 1e-05
-0.0206 0.00903333 1e-05
-0.0205 0.0117111 1e-05
-0.02052 0.0117111 1e-05
-0.02054 0.0117111 1e-05
-0.02056 0.0117111 1e-05
-0.02058 0.0117111 1e-05
-0.0206 0.0117111 1e-05
-0.0205 0.0143889 1e-05
-0.02052 0.0143889 1e-05
-0.02054 0.0143889 1e-05
-0.02056 0.0143889 1e-05
-0.02058 0.0143889 1e-05
-0.0206 0.0143889 1e-05
-0.0205 0.0170667 1e-05
-0.02052 0.0170667 1e-05
-0.02054 0.0170667 1e-05
-0.02056 0.0170667 1e-05
-0.02058 0.0170667 1e-05
-0.0206 0.0170667 1e-05
-0.0205 0.0197444 1e-05
-0.02052 0.0197444 1e-05
-0.02054 0.0197444 1e-05
-0.02056 0.0197444 1e-05
-0.02058 0.0197444 1e-05
-0.0206 0.0197444 1e-05
-0.0205 0.0224222 1e-05
-0.02052 0.0224222 1e-05
-0.02054 0.0224222 1e-05
-0.02056 0.0224222 1e-05
-0.02058 0.0224222 1e-05
-0.0206 0.0224222 1e-05
-0.0205 0.0251 1e-05
-0.02052 0.0250998 1e-05
-0.02054 0.0250997 1e-05
-0.02056 0.0250995 1e-05
-0.02058 0.0250995 1e-05
-0.0206 0.0250994 1e-05
-0.0205 0.001 1e-05
-0.0202034 0.00100022 1e-05
-0.0199069 0.00100067 1e-05
-0.0196103 0.00100132 1e-05
-0.0193137 0.00100219 1e-05
-0.0190172 0.00100326 1e-05
-0.0187132 0.00100467 1e-05
-0.0184093 0.00100589 1e-05
-0.0181054 0.0010071 1e-05
-0.0178015 0.00100832 1e-05
-0.0174976 0.00100954 1e-05
-0.0172058 0.00101083 1e-05
-0.016914 0.00101194 1e-05
-0.0166222 0.00101304 1e-05
-0.0163305 0.00101414 1e-05
-0.0160387 0.00101524 1e-05
-0.0157586 0.00101638 1e-05
-0.0154784 0.00101746 1e-05
-0.0151983 0.00101858 1e-05
-0.0149182 0.00101973 1e-05
-0.0146381 0.00102092 1e-05
-0.014376 0.0010221 1e-05
-0.0141139 0.00102328 1e-05
-0.0138518 0.0010245 1e-05
-0.0135898 0.00102574 1e-05
-0.0133685 0.00102682 1e-05
-0.0133535 0.00102689 1e-05
-0.0133385 0.00102697 1e-05
-0.0133235 0.00102704 1e-05
-0.0133085 0.00102712 1e-05
-0.0132934 0.00102719 1e-05
-0.0130353 0.00102848 1e-05
-0.0127771 0.00102979 1e-05
-0.0125189 0.00103111 1e-05
-0.0122607 0.00103245 1e-05
-0.0120025 0.00103381 1e-05
-0.0117547 0.00103512 1e-05
-0.0115068 0.00103644 1e-05
-0.0112589 0.00103777 1e-05
-0.0110111 0.0010391 1e-05
-0.0107632 0.00104043 1e-05
-0.0105252 0.00104172 1e-05
-0.0102873 0.001043 1e-05
-0.0100493 0.00104429 1e-05
-0.00981133 0.00104557 1e-05
-0.00957337 0.00104686 1e-05
-0.00934491 0.00104809 1e-05
-0.00911645 0.00104932 1e-05
-0.00888799 0.00105055 1e-05
-0.00865954 0.00105178 1e-05
-0.00843108 0.001053 1e-05
-0.00821175 0.00105417 1e-05
-0.00799242 0.00105534 1e-05
-0.00777309 0.00105651 1e-05
-0.00755376 0.00105767 1e-05
-0.00733443 0.00105883 1e-05
-0.00712387 0.00105994 1e-05
-0.0069133 0.00106104 1e-05
-0.00670273 0.00106215 1e-05
-0.00649216 0.00106325 1e-05
-0.0062816 0.00106435 1e-05
-0.00607944 0.00106539 1e-05
-0.00587729 0.00106644 1e-05
-0.00567514 0.00106749 1e-05
-0.00547298 0.00106853 1e-05
-0.00527083 0.00106958 1e-05
-0.00507675 0.00107057 1e-05
-0.00488267 0.00107156 1e-05
-0.0046886 0.00107256 1e-05
-0.00449452 0.00107355 1e-05
-0.00430044 0.00107455 1e-05
-0.00411412 0.0010755 1e-05
-0.0039278 0.00107645 1e-05
-0.00374147 0.0010774 1e-05
-0.00355515 0.00107836 1e-05
-0.00336883 0.00107932 1e-05
-0.00318995 0.00108023 1e-05
-0.00301107 0.00108116 1e-05
-0.00283219 0.00108208 1e-05
-0.00265331 0.00108302 1e-05
-0.00247443 0.00108396 1e-05
-0.0023027 0.00108486 1e-05
-0.00213097 0.00108578 1e-05
-0.00195924 0.00108671 1e-05
-0.00178751 0.00108765 1e-05
-0.00161577 0.00108859 1e-05
-0.0014509 0.00108951 1e-05
-0.00128603 0.00109044 1e-05
-0.00112116 0.0010914 1e-05
-0.00095629 0.00109238 1e-05
-0.000791418 0.00109339 1e-05
-0.000633135 0.00109438 1e-05
-0.000474851 0.00109539 1e-05
-0.000316568 0.00109644 1e-05
-0.000158285 0.00109752 1e-05
0 0.00109863 1e-05
0.000105677 0.00109939 1e-05
0.000211355 0.00110015 1e-05
0.000317032 0.00110093 1e-05
0.000422709 0.00110171 1e-05
0.000528387 0.00110249 1e-05
0.000634886 0.00110328 1e-05
0.000741385 0.00110407 1e-05
0.000847885 0.00110484 1e-05
0.000954384 0.00110561 1e-05
0.00106088 0.00110637 1e-05
0.00116821 0.00110712 1e-05
0.00127554 0.00110786 1e-05
0.00138286 0.00110859 1e-05
0.00149019 0.0011093 1e-05
0.00159752 0.00110999 1e-05
0.00170568 0.00111067 1e-05
0.00181384 0.00111134 1e-05
0.001922 0.00111199 1e-05
0.00203016 0.00111263 1e-05
0.00213833 0.00111324 1e-05
0.00224733 0.00111385 1e-05
0.00235633 0.00111444 1e-05
0.00246533 0.00111502 1e-05
0.00257434 0.00111558 1e-05
0.00268334 0.00111612 1e-05
0.00279319 0.00111665 1e-05
0.00290304 0.00111717 1e-05
0.00301289 0.00111768 1e-05
0.00312274 0.00111817 1e-05
0.00323259 0.00111865 1e-05
0.00334329 0.00111911 1e-05
0.003454 0.00111956 1e-05
0.0035647 0.00112 1e-05
0.0036754 0.00112043 1e-05
0.00378611 0.00112083 1e-05
0.00389767 0.00112123 1e-05
0.00400924 0.00112161 1e-05
0.0041208 0.00112198 1e-05
0.00423237 0.00112234 1e-05
0.00434393 0.00112268 1e-05
0.00445636 0.00112301 1e-05
0.00456879 0.00112332 1e-05
0.00468123 0.00112363 1e-05
0.00479366 0.00112392 1e-05
0.00490609 0.0011242 1e-05
0.0050194 0.00112445 1e-05
0.0051327 0.00112471 1e-05
0.00524601 0.00112494 1e-05
0.00535932 0.00112517 1e-05
0.00547262 0.00112538 1e-05
0.00558681 0.00112557 1e-05
0.005701 0.00112576 1e-05
0.00581518 0.00112594 1e-05
0.00592937 0.0011261 1e-05
0.00604356 0.00112625 1e-05
0.00615863 0.00112638 1e-05
0.00627371 0.0011265 1e-05
0.00638878 0.00112662 1e-05
0.00650386 0.00112672 1e-05
0.00661893 0.0011268 1e-05
0.0067349 0.00112688 1e-05
0.00685087 0.00112694 1e-05
0.00696684 0.00112699 1e-05
0.00708281 0.00112704 1e-05
0.00719878 0.00112706 1e-05
0.00731565 0.00112708 1e-05
0.00743252 0.00112708 1e-05
0.00754939 0.00112708 1e-05
0.00766626 0.00112706 1e-05
0.00778313 0.00112703 1e-05
0.00790091 0.00112699 1e-05
0.00801869 0.00112693 1e-05
0.00813647 0.00112687 1e-05
0.00825425 0.00112679 1e-05
0.00837203 0.00112671 1e-05
0.00843675 0.00112665 1e-05
0.00850147 0.00112659 1e-05
0.00856619 0.00112653 1e-05
0.00863091 0.00112647 1e-05
0.00869319 0.0011264 1e-05
0.00874766 0.00112634 1e-05
0.00880212 0.00112628 1e-05
0.00885658 0.00112622 1e-05
0.00891105 0.00112615 1e-05
0.00896551 0.00112608 1e-05
0.00908513 0.00112592 1e-05
0.00920475 0.00112575 1e-05
0.00932437 0.00112557 1e-05
0.00944398 0.00112537 1e-05
0.0095636 0.00112517 1e-05
0.00968415 0.00112495 1e-05
0.0098047 0.00112472 1e-05
0.00992525 0.00112448 1e-05
0.0100458 0.00112422 1e-05
0.0101663 0.00112396 1e-05
0.0102878 0.00112367 1e-05
0.0104093 0.00112338 1e-05
0.0105308 0.00112308 1e-05
0.0106523 0.00112277 1e-05
0.0107738 0.00112244 1e-05
0.0108962 0.0011221 1e-05
0.0110186 0.00112174 1e-05
0.0111411 0.00112138 1e-05
0.0112635 0.001121 1e-05
0.0113859 0.00112062 1e-05
0.0115093 0.00112021 1e-05
0.0116327 0.00111979 1e-05
0.0117561 0.00111936 1e-05
0.0118795 0.00111892 1e-05
0.0120028 0.00111847 1e-05
0.0121272 0.001118 1e-05
0.0122515 0.00111752 1e-05
0.0123759 0.00111703 1e-05
0.0125002 0.00111652 1e-05
0.0126245 0.00111601 1e-05
0.0127498 0.00111547 1e-05
0.0128752 0.00111492 1e-05
0.0130005 0.00111437 1e-05
0.0131258 0.0011138 1e-05
0.0132511 0.00111321 1e-05
0.0133774 0.00111261 1e-05
0.0135036 0.001112 1e-05
0.0136299 0.00111137 1e-05
0.0137562 0.00111073 1e-05
0.0138825 0.00111008 1e-05
0.0140098 0.00110941 1e-05
0.014137 0.00110873 1e-05
0.0142643 0.00110803 1e-05
0.0143915 0.00110733 1e-05
0.0145188 0.0011066 1e-05
0.0146471 0.00110587 1e-05
0.0147753 0.00110512 1e-05
0.0149036 0.00110435 1e-05
0.0150318 0.00110357 1e-05
0.0151601 0.00110277 1e-05
0.0152893 0.00110197 1e-05
0.0154186 0.00110115 1e-05
0.0155478 0.0011003 1e-05
0.0156771 0.00109945 1e-05
0.0158063 0.00109858 1e-05
0.0159366 0.00109771 1e-05
0.0160668 0.00109681 1e-05
0.0161971 0.00109589 1e-05
0.0163273 0.00109496 1e-05
0.0164576 0.00109402 1e-05
0.0165889 0.00109307 1e-05
0.0167201 0.00109209 1e-05
0.0168514 0.0010911 1e-05
0.0169827 0.00109009 1e-05
0.0171139 0.00108907 1e-05
0.0172462 0.00108804 1e-05
0.0173785 0.00108699 1e-05
0.0175108 0.00108591 1e-05
0.0176431 0.00108482 1e-05
0.0177754 0.00108372 1e-05
0.0179087 0.00108262 1e-05
0.018042 0.00108148 1e-05
0.0181753 0.00108032 1e-05
0.0183087 0.00107914 1e-05
0.018442 0.00107795 1e-05
0.0185763 0.00107677 1e-05
0.0187107 0.00107555 1e-05
0.018845 0.0010743 1e-05
0.0189794 0.00107302 1e-05
0.0191137 0.00107176 1e-05
0.0192491 0.00107049 1e-05
0.0193845 0.00106918 1e-05
0.0195199 0.00106783 1e-05
0.0196553 0.00106647 1e-05
0.0197907 0.00106511 1e-05
0.0199272 0.00106375 1e-05
0.0200636 0.00106235 1e-05
0.0202001 0.00106091 1e-05
0.0203365 0.00105946 1e-05
0.020473 0.00105801 1e-05
0.0206105 0.00105655 1e-05
0.020748 0.00105506 1e-05
0.0208855 0.00105352 1e-05
0.021023 0.00105197 1e-05
0.0211606 0.00105042 1e-05
0.0212991 0.00104887 1e-05
0.0214377 0.00104727 1e-05
0.0215763 0.00104564 1e-05
0.0217149 0.00104398 1e-05
0.0218535 0.00104233 1e-05
0.0219931 0.00104067 1e-05
0.0221328 0.00103897 1e-05
0.0222724 0.00103723 1e-05
0.0224121 0.00103547 1e-05
0.0225517 0.00103372 1e-05
0.0226925 0.00103195 1e-05
0.0228332 0.00103014 1e-05
0.022974 0.00102829 1e-05
0.0231147 0.00102642 1e-05
0.0232555 0.00102455 1e-05
0.0233973 0.00102267 1e-05
0.0235391 0.00102075 1e-05
0.023681 0.00101879 1e-05
0.0238228 0.0010168 1e-05
0.0239647 0.00101482 1e-05
0.0241076 0.00101282 1e-05
0.0242505 0.00101078 1e-05
0.0243935 0.0010087 1e-05
0.0245364 0.0010066 1e-05
0.0246794 0.00100449 1e-05
0.0248234 0.00100237 1e-05
0.0249675 0.00100021 1e-05
0.0251115 0.000998006 1e-05
0.0252556 0.000995785 1e-05
[...]
POINT_DATA 12075
 FIELD attributes 2
p 1 12075 float
-5.65458 -5.65126 -5.64795 -5.64463 -5.64132 -5.63801
-5.80755 -5.80753 -5.80751 -5.80749 -5.80746 -5.80744
-5.98294 -5.98282 -5.9827 -5.98258 -5.98245 -5.98235
-6.07793 -6.07788 -6.07782 -6.07777 -6.07772 -6.07766
-6.12475 -6.12464 -6.12452 -6.12441 -6.1243 -6.12418
-6.13286 -6.1327 -6.13254 -6.13237 -6.13221 -6.13205
-6.10726 -6.10718 -6.10711 -6.10704 -6.10697 -6.1069
-6.03865 -6.03861 -6.03857 -6.03853 -6.03849 -6.03845
-5.91794 -5.91795 -5.91795 -5.91796 -5.91797 -5.91797
-3.70554 -3.72487 -3.74407 -3.76314 -3.78208 -3.80088
-5.65458 -5.65385 -5.6502 -5.64648 -5.64269 -5.63428 -5.64805 -5.66292 -5.6778 -5.69267 -5.71699 -5.7386 -5.76837 -5.79814 -5.82791 -5.86049 -5.87594 -5.89742 -5.91891 -5.9404 -5.9635 -5.98202 -6.00253 -6.02305 -6.04357 -6.0609 -6.06207 -6.06324 -6.06441 -6.06558 -6.06675 -6.08804 -6.10933 -6.13062 -6.15192 -6.17293 -6.19122 -6.20932 -6.22742 -6.24552 -6.26304 -6.27807 -6.29282 -6.30756 -6.32231 -6.33648 -6.34951 -6.36226 -6.37501 -6.38776 -6.40004 -6.4118 -6.42325 -6.43469 -6.44614 -6.45713 -6.46771 -6.47791 -6.48812 -6.49832 -6.50805 -6.51745 -6.52643 -6.53542 -6.5444 -6.55297 -6.56126 -6.56903 -6.5768 -6.58457 -6.59197 -6.59911 -6.60574 -6.61236 -6.61899 -6.62546 -6.6316 -6.63683 -6.64206 -6.64729 -6.65249 -6.65787 -6.66309 -6.66831 -6.67353 -6.68009 -6.68728 -6.69316 -6.69905 -6.70494 -6.71234 -6.7236 -6.74027 -6.75693 -6.77359 -6.79564 -6.81968 -6.85113 -6.88259 -6.91405 -6.9453 -6.97513 -7.00673 -7.03833 -7.06994 -7.09703 -7.11777 -7.13766 -7.15756 -7.17745 -7.19563 -7.2092 -7.22175 -7.2343 -7.24685 -7.25913 -7.27008 -7.2795 -7.28891 -7.29833 -7.30685 -7.3161 -7.32363 -7.33117 -7.33871 -7.34484 -7.35213 -7.35781 -7.3635 -7.36919 -7.37348 -7.37858 -7.3824 -7.38621 -7.39002 -7.39287 -7.39615 -7.39843 -7.40071 -7.403 -7.40477 -7.40678 -7.40802 -7.40926 -7.4105 -7.41153 -7.41294 -7.41376 -7.41458 -7.41539 -7.41607 -7.41734 -7.41811 -7.41889 -7.41967 -7.42027 -7.42141 -7.42216 -7.4229 -7.42364 -7.4242 -7.42511 -7.42573 -7.42634 -7.42696 -7.42746 -7.42827 -7.42892 -7.42957 -7.43023 -7.43084 -7.43143 -7.43197 -7.43252 -7.43306 -7.43359 -7.43404 -7.4345 -7.43495 -7.4354 -7.43605 -7.43731 -7.43875 -7.4402 -7.44165 -7.4437 -7.44496 -7.44677 -7.44859 -7.4504 -7.45322 -7.45442 -7.45653 -7.45864 -7.46075 -7.46423 -7.46541 -7.46782 -7.47023 -7.47265 -7.47675 -7.478 -7.48075 -7.48349 -7.48624 -7.49093 -7.49238 -7.49549 -7.49861 -7.50173 -7.50698 -7.50873 -7.51225 -7.51577 -7.51929 -7.52503 -7.52718 -7.5311 -7.53502 -7.53895 -7.5451 -7.54769 -7.55198 -7.55628 -7.56058 -7.567 -7.57014 -7.57467 -7.57928 -7.58413 -7.5905 -7.59423 -7.5989 -7.60378 -7.60903 -7.61534 -7.61958 -7.62439 -7.62948 -7.63501 -7.64126 -7.64593 -7.65093 -7.65619 -7.66194 -7.66815 -7.67321 -7.67843 -7.6839 -7.68982 -7.696 -7.70141 -7.70687 -7.71249 -7.71846 -7.72452 -7.73011 -7.73571 -7.74138 -7.74726 -7.75315 -7.75879 -7.76442 -7.77006 -7.77583 -7.7816 -7.78722 -7.79285 -7.79845 -7.80409 -7.80972 -7.81528 -7.82084 -7.82634 -7.83181 -7.83728 -7.84268 -7.84809 -7.85342 -7.85867 -7.86391 -7.86908 -7.87425 -7.87936 -7.88434 -7.88933 -7.8942 -7.89907 -7.9039 -7.90857 -7.91325 -7.91777 -7.9223 -7.92677 -7.9311 -7.93542 -7.93954 -7.94365 -7.94771 -7.95167 -7.95558 -7.95926 -7.9629 -7.96651 -7.97002 -7.97347 -7.97664 -7.97977 -7.98288 -7.98593 -7.98887 -7.99156 -7.99415 -7.99673 -7.99927 -8.00163 -8.00379 -8.00578 -8.00777 -8.00975 -8.01142 -8.01293 -8.01424 -8.01555 -8.01686 -8.01786 -8.01859 -8.01916 -8.01973 -8.0203 -8.02066 -8.02056 -8.02036 -8.02016 -8.01997 -8.01968 -8.01878 -8.01783 -8.01688 -8.01594 -8.01506 -8.01502 -8.01499 -8.01495 -8.01491 -8.01486 -8.01309 -8.01132 -8.00955 -8.00778 -8.00591 -8.00331 -8.00058 -7.99785 -7.99513 -7.99222 -7.98878 -7.98511 -7.98145 -7.9778 -7.97389 -7.96965 -7.96508 -7.96051 -7.95594 -7.95108 -7.946 -7.94059 -7.93515 -7.92963 -7.92392 -7.918 -7.91186 -7.90556 -7.89912 -7.89255 -7.88579 -7.87893 -7.8718 -7.86441 -7.85697 -7.84939 -7.84182 -7.83377 -7.82532 -7.81687 -7.80833 -7.7998 -7.79071 -7.78109 -7.77148 -7.76177 -7.75207 -7.74193 -7.7313 -7.72068 -7.70987 -7.69907 -7.68795 -7.67652 -7.66507 -7.65326 -7.6414 -7.6294 -7.6173 -7.60512 -7.59239 -7.57965 -7.5669 -7.55416 -7.54144 -7.52796 -7.51456 -7.50117 -7.48779 -7.47453 -7.46041 -7.44648 -7.43255 -7.41863 -7.40487 -7.39034 -7.37595 -7.36157 -7.34719 -7.33283 -7.33116 -7.32951 -7.32786 -7.32621 -7.32458 -7.31147 -7.29837 -7.28528 -7.27219 -7.25918 -7.24401 -7.22897 -7.21394 -7.19892 -7.18416 -7.1686 -7.15342 -7.13824 -7.12311 -7.10844 -7.09266 -7.0773 -7.0621 -7.04718 -7.03261 -7.01681 -7.00122 -6.98609 -6.97158 -6.95719 -6.94147 -6.92577 -6.91096 -6.89706 -6.88315 -6.86779 -6.85244 -6.83815 -6.82494 -6.81173 -6.79696 -6.78221 -6.76875 -6.75627 -6.74391 -6.72992 -6.71651 -6.70396 -6.69192 -6.68056 -6.66751 -6.65572 -6.64423 -6.63275 -6.62248 -6.61088 -6.6006 -6.59033 -6.58006 -6.57045 -6.56082 -6.55188 -6.54294 -6.53399 -6.52506 -6.52495 -6.52485 -6.52474 -6.52464 -6.52454 -6.5171 -6.50965 -6.50221 -6.49476 -6.4881 -6.48141 -6.47552 -6.46962 -6.46372 -6.45948 -6.45374 -6.44968 -6.44561 -6.44197 -6.43999 -6.43605 -6.43315 -6.43102 -6.43013 -6.43009 -6.42812 -6.42636 -6.42622 -6.42809 -6.42999 -6.43002 -6.43005 -6.432 -6.43584 -6.43966 -6.4417 -6.44373 -6.44755 -6.45328 -6.45899 -6.46303 -6.46718 -6.47296 -6.48025 -6.48782 -6.49384 -6.50049 -6.50808 -6.51647 -6.52579 -6.53376 -6.54272 -6.55203 -6.56148 -6.57241 -6.58217 -6.59308 -6.60398 -6.61487 -6.62695 -6.63863 -6.65097 -6.66329 -6.6756 -6.68855 -6.70187 -6.71547 -6.72906 -6.74264 -6.75639 -6.76346 -6.77058 -6.7777 -6.78482 -6.79234 -6.79976 -6.80718 -6.81459 -6.822 -6.82946 -6.84475 -6.86019 -6.87561 -6.89103 -6.90652 -6.92215 -6.93816 -6.95415 -6.97014 -6.98609 -7.00184 -7.01808 -7.03431 -7.05053 -7.0665 -7.08215 -7.09825 -7.11434 -7.13043 -7.14593 -7.16119 -7.17676 -7.19233 -7.20779 -7.22255 -7.23721 -7.25191 -7.26663 -7.28099 -7.29466 -7.30835 -7.32196 -7.33553 -7.34845 -7.36079 -7.37325 -7.38561 -7.39774 -7.40882 -7.4195 -7.43041 -7.44125 -7.45165 -7.46053 -7.46929 -7.47836 -7.48744 -7.4956 -7.50205 -7.5085 -7.51536 -7.52222 -7.5277 -7.53151 -7.53533 -7.53963 -7.54394 -7.54635 -7.54709 -7.54784 -7.54915 -7.55047 -7.54942 -7.54675 -7.54409 -7.54207 -7.5395 -7.53465 -7.52862 -7.52209 -7.51627 -7.50886 -7.49999 -7.49055 -7.47978 -7.46979 -7.45688 -7.44359 -7.4303 -7.41518 -7.39959 -7.38148 -7.36337 -7.34526 -7.32635 -7.3132 -7.299 -7.2848 -7.2706 -7.25829 -7.24899 -7.2397 -7.23041 -7.22113 -7.21111 -7.18341 -7.15508 -7.12676 -7.09844 -7.06737 -7.03562 -7.00139 -6.96718 -6.93197 -6.89357 -6.85604 -6.8174 -6.77694 -6.73285 -6.68798 -6.644 -6.60002 -6.55226 -6.50066 -6.44898 -6.3982 -6.34664 -6.29116 -6.23393 -6.17523 -6.11742 -6.0552 -5.99253 -5.92984 -5.86562 -5.84173 -5.81636 -5.79099 -5.76562 -5.74192 -5.69779 -5.65366 -5.60954 -5.56543 -5.51848 -5.4451 -5.36906 -5.29304 -5.2149 -5.13345 -5.05317 -4.9729 -4.8884 -4.79962 -4.71058 -4.62268 -4.53314 -4.44 -4.34648 -4.24992 -4.19123 -4.12954 -4.06766 -4.00578 -3.9499 -3.91063 -3.87136 -3.83211 -3.79269 -3.75121 -3.64745 -3.54145 -3.43548 -3.32671 -3.21502 -3.10475 -2.9945 -2.88042 -2.76241 -2.64385 -2.54143 -2.43583 -2.32926 -2.22271 -2.12921 -2.11141 -2.09361 -2.07581 -2.05782 -2.03927 -1.91396 -1.78781 -1.66171 -1.53352 -1.4022 -1.27239 -1.14264 -1.00962 -0.874283 -0.737707 -0.661726 -0.584598 -0.506663 -0.428743 -0.356379 -0.295195 -0.234024 -0.172867 -0.111056 -0.0481075 0.0917082 0.232188 0.37355 0.517561 0.662635 0.796793 0.931922 1.06808 1.20419 1.32571 1.3383 1.35088 1.36347 1.37615 1.38894 1.53593 1.68313 1.83023 1.97829 2.12806 2.27639 2.42483 2.57371 2.72249 2.8727 2.87866 2.88461 2.89056 2.89651 2.90244 3.04589 3.18925 3.33253 3.47568 3.62007 3.76911 3.91784 4.06585 4.21376 4.36307 4.36371 4.36435 4.36498 4.36561 4.36624 4.51322 4.6601 4.80689 4.95252 5.09907 5.22578 5.35197 5.47665 5.60125 5.71783 5.73876 5.75968 5.7806 5.8013 5.82197 5.96474 6.10702 6.24914 6.38869 6.52943 6.61889 6.70796 6.79535 6.88271 6.96694 7.01732 7.0677 7.11806 7.16752 7.21687 7.35196 7.48699 7.6198 7.75033 7.88169 7.93206 7.98218 8.03096 8.07974 8.12789 8.20765 8.28741 8.36715 8.44451 8.52175 8.64708 8.7721 8.89265 9.01319 9.13394 9.13597 9.13799 9.13994 9.14188 9.14383 9.26034 9.37686 9.49338 9.60558 9.71737 9.78731 9.85704 9.92394 9.99086 10.0583 10.1013 10.1443 10.1873 10.2286 10.2697 10.3769 10.4841 10.5881 10.6897 10.7907 10.8137 10.8366 10.8585 10.8804 10.9025 10.9796 11.0567 11.1338 11.2076 11.2807 11.3638 11.4465 11.5256 11.6048 11.6888 11.6989 11.7091 11.7193 11.729 11.7387 11.8268 11.9142 12.0015 12.0846 12.1668 12.2202 12.273 12.3237 12.3744 12.4285 12.4562 12.4838 12.5115 12.5381 12.5643 12.6405 12.7167 12.7908 12.8624 12.9331 12.9753 13.0168 13.0569 13.097 13.1404 13.1675 13.1946 13.2217 13.248 13.2737 13.3387 13.4034 13.4668 13.5277 13.5879 13.6377 13.6863 13.7336 13.781 13.8351 13.8434 13.8516 13.8599 13.868 13.8758 13.93 13.9839 14.0376 14.0899 14.1407 14.1906 14.2404 14.2881 14.3353 14.3816 14.4091 14.4356 14.4618 14.4879 14.5172 14.5342 14.5511 14.5681 14.5849 14.6011 14.6421 14.6827 14.7232 14.7626 14.8011 14.8383 14.8755 14.9116 14.9467 14.9815 15.0152 15.0479 15.0801 15.1123 15.1441 15.1538 15.1632 15.1725 15.1818 15.1918 15.2119 15.2319 15.2519 15.272 15.2913 15.3183 15.3451 15.3718 15.3981 15.4237 15.448 15.4722 15.496 15.5191 15.5421 15.5638 15.5855 15.6064 15.6272 15.6478 15.6672 15.6861 15.7048 15.7234 15.7419 15.759 15.7757 15.7924 15.809 15.8256 15.8268 15.8281 15.8293 15.8305 15.8318 15.8456 15.8594 15.8732 15.887 15.9006 15.9138 15.9272 15.9405 15.9539 15.9669 15.9786 15.9904 16.0022 16.0139 16.0255 16.0358 16.0461 16.0566 16.0669 16.0772 16.0863 16.0953 16.1044 16.1136 16.1227 16.1307 16.1387 16.1466 16.1548 16.1629 16.1699 16.1769 16.1839 16.191 16.1982 16.2044 16.2106 16.2168 16.2231 16.2295 16.235 16.2406 16.2461 16.2516 16.2574 16.2623 16.2674 16.2724 16.2774 16.2825 16.2871 16.2918 16.2964 16.301 16.3058 16.3102 16.3147 16.3191 16.3236 16.3281 16.3309 16.3337 16.3364 16.3392 16.3425 16.3442 16.3458 16.3475 16.3491 16.3508 16.3557 16.3606 16.3655 16.3705 16.3755 16.3811 16.3868 16.3926 16.3983 16.4044 16.4112 16.418 16.4248 16.4316 16.439 16.4475 16.4563 16.4651 16.4739 16.4843 16.4946 16.5028 16.5108 16.5188 16.5272 16.5361 16.5457 16.5553 16.5648 16.577 16.5807 16.5757 16.5703 16.5645 16.5349 16.4975 16.4594 16.4212 16.3805 16.3354 16.288 16.2429 16.2023 16.1653 16.1292 16.0913 16.0533 16.0157 15.9784 15.9411 15.9015 15.8618 15.8199 15.7758 15.7316 15.6848 15.6379 15.5898 15.5408 15.4917 15.4398 15.3878 15.3351 15.282 15.2287 15.1727 15.116 15.0587 15.001 14.9426 14.8813 14.8188 14.7558 14.6927 14.6282 14.5606 14.4913 14.4219 14.3525 14.2816 14.2067 14.1302 14.0536 13.9771 13.8993 13.816 13.7315 13.647 13.5625 13.4772 13.3845 13.291 13.1975 13.104 13.0103 12.9782 12.9459 12.9136 12.8813 12.8468 12.7761 12.7054 12.6348 12.5641 12.4928 12.3787 12.2638 12.149 12.0341 11.9177 11.7917 11.6639 11.5361 11.4082 11.2775 11.1383 10.9955 10.8527 10.7099 10.5625 10.408 10.2484 10.0889 9.92927 9.76377 9.59267 9.41318 9.23331 9.05211 8.86325 8.66826 8.46893 8.2682 8.06556 7.85899 7.64564 7.42181 7.18992 6.94839 6.69751 6.43828 6.18195 5.93037 5.68399 5.4401 5.18796 4.92204 4.60037 4.21616 3.82212 3.4142 3.00789 2.71727 2.53875 2.36029 2.17531 1.99046 1.51391 0.756418 0