# vtk DataFile Version 2.0
track0
ASCII
DATASET POLYDATA
POINTS 12075 float
-0.0205 0.001 1e-05
-0.02052 0.000999985 1e-05
-0.02054 0.000999974 1e-05
-0.02056 0.000999965 1e-05
-0.02058 0.000999959 1e-05
-0.0206 0.000999956 1e-05
-0.0205 0.00367778 1e-05
-0.02052 0.00367778 1e-05
-0.02054 0.00367777 1e-05
-0.02056 0.00367777 1e-05
-0.02058 0.00367777 1e-05
-0.0206 0.00367777 1e-05
-0.0205 0.00635556 1e-05
-0.02052 0.00635555 1e-05
-0.02054 0.00635555 1e-05
-0.02056 0.00635555 1e-05
-0.02058 0.00635555 1e-05
-0.0206 0.00635555 1e-05
-0.0205 0.00903333 1e-05
-0.02052 0.00903333 1e-05
-0.02054 0.00903333 1e-05
-0.02056 0.00903333 1e-05
-0.02058 0.00903333 1e-05
-0.0206 0.00903333 1e-05
-0.0205 0.0117111 1e-05
-0.02052 0.0117111 1e-05
-0.02054 0.0117111 1e-05
-0.02056 0.0117111 1e-05
-0.02058 0.0117111 1e-05
-0.0206 0.0117111 1e-05
-0.0205 0.0143889 1e-05
-0.02052 0.0143889 1e-05
-0.02054 0.0143889 1e-05
-0.02056 0.0143889 1e-05
-0.02058 0.0143889 1e-05
-0.0206 0.0143889 1e-05
-0.0205 0.0170667 1e-05
-0.02052 0.0170667 1e-05
-0.02054 0.0170667 1e-05
-0.02056 0.0170667 1e-05
-0.02058 0.0170667 1e-05
-0.0206 0.0170667 1e-05
-0.0205 0.0197444 1e-05
-0.02052 0.0197444 1e-05
-0.02054 0.0197444 1e-05
-0.02056 0.0197444 1e-05
-0.02058 0.0197444 1e-05
-0.0206 0.0197444 1e-05
-0.0205 0.0224222 1e-05
-0.02052 0.0224222 1e-05
-0.02054 0.0224222 1e-05
-0.02056 0.0224222 1e-05
-0.02058 0.0224222 1e-05
-0.0206 0.0224222 1e-05
-0.0205 0.0251 1e-05
-0.02052 0.0250998 1e-05
-0.02054 0.0250997 1e-05
-0.02056 0.0250995 1e-05
-0.02058 0.0250995 1e-05
-0.0206 0.0250994 1e-05
-0.0205 0.001 1e-05
-0.0202034 0.00100022 1e-05
-0.0199069 0.00100067 1e-05
-0.0196103 0.00100132 1e-05
-0.0193137 0.00100219 1e-05
-0.0190172 0.00100326 1e-05
-0.0187132 0.00100467 1e-05
-0.0184093 0.00100589 1e-05
-0.0181054 0.0010071 1e-05
-0.0178015 0.00100832 1e-05
-0.0174976 0.00100954 1e-05
-0.0172058 0.00101083 1e-05
-0.016914 0.00101194 1e-05
-0.0166222 0.00101304 1e-05
-0.0163305 0.00101414 1e-05
-0.0160387 0.00101524 1e-05
-0.0157586 0.00101638 1e-05
-0.0154784 0.00101746 1e-05
-0.0151983 0.00101858 1e-05
-0.0149182 0.00101973 1e-05
-0.0146381 0.00102092 1e-05
-0.014376 0.0010221 1e-05
-0.0141139 0.00102328 1e-05
-0.0138518 0.0010245 1e-05
-0.0135898 0.00102574 1e-05
-0.0133685 0.00102682 1e-05
-0.0133535 0.00102689 1e-05
-0.0133385 0.00102697 1e-05
-0.0133235 0.00102704 1e-05
-0.0133085 0.00102712 1e-05
-0.0132934 0.00102719 1e-05
-0.0130353 0.00102848 1e-05
-0.0127771 0.00102979 1e-05
-0.0125189 0.00103111 1e-05
-0.0122607 0.00103245 1e-05
-0.0120025 0.00103381 1e-05
-0.0117547 0.00103512 1e-05
-0.0115068 0.00103644 1e-05
-0.0112589 0.00103777 1e-05
-0.0110111 0.0010391 1e-05
-0.0107632 0.00104043 1e-05
-0.0105252 0.00104172 1e-05
-0.0102873 0.001043 1e-05
-0.0100493 0.00104429 1e-05
-0.00981133 0.00104557 1e-05
-0.00957337 0.00104686 1e-05
-0.00934491 0.00104809 1e-05
-0.00911645 0.00104932 1e-05
-0.00888799 0.00105055 1e-05
-0.00865954 0.00105178 1e-05
-0.00843108 0.001053 1e-05
-0.00821175 0.00105417 1e-05
-0.00799242 0.00105534 1e-05
-0.00777309 0.00105651 1e-05
-0.00755376 0.00105767 1e-05
-0.00733443 0.00105883 1e-05
-0.00712387 0.00105994 1e-05
-0.0069133 0.00106104 1e-05
-0.00670273 0.00106215 1e-05
-0.00649216 0.00106325 1e-05
-0.0062816 0.00106435 1e-05
-0.00607944 0.00106539 1e-05
-0.00587729 0.00106644 1e-05
-0.00567514 0.00106749 1e-05
-0.00547298 0.00106853 1e-05
-0.00527083 0.00106958 1e-05
-0.00507675 0.00107057 1e-05
-0.00488267 0.00107156 1e-05
-0.0046886 0.00107256 1e-05
-0.00449452 0.00107355 1e-05
-0.00430044 0.00107455 1e-05
-0.00411412 0.0010755 1e-05
-0.0039278 0.00107645 1e-05
-0.00374147 0.0010774 1e-05
-0.00355515 0.00107836 1e-05
-0.00336883 0.00107932 1e-05
-0.00318995 0.00108023 1e-05
-0.00301107 0.00108116 1e-05
-0.00283219 0.00108208 1e-05
-0.00265331 0.00108302 1e-05
-0.00247443 0.00108396 1e-05
-0.0023027 0.00108486 1e-05
-0.00213097 0.00108578 1e-05
-0.00195924 0.00108671 1e-05
-0.00178751 0.00108765 1e-05
-0.00161577 0.00108859 1e-05
-0.0014509 0.00108951 1e-05
-0.00128603 0.00109044 1e-05
-0.00112116 0.0010914 1e-05
-0.00095629 0.00109238 1e-05
-0.000791418 0.00109339 1e-05
-0.000633135 0.00109438 1e-05
-0.000474851 0.00109539 1e-05
-0.000316568 0.00109644 1e-05
-0.000158285 0.00109752 1e-05
0 0.00109863 1e-05
0.000105677 0.00109939 1e-05
0.000211355 0.00110015 1e-05
0.000317032 0.00110093 1e-05
0.000422709 0.00110171 1e-05
0.000528387 0.00110249 1e-05
0.000634886 0.00110328 1e-05
0.000741385 0.00110407 1e-05
0.000847885 0.00110484 1e-05
0.000954384 0.00110561 1e-05
0.00106088 0.00110637 1e-05
0.00116821 0.00110712 1e-05
0.00127554 0.00110786 1e-05
0.00138286 0.00110859 1e-05
0.00149019 0.0011093 1e-05
0.00159752 0.00110999 1e-05
0.00170568 0.00111067 1e-05
0.00181384 0.00111134 1e-05
0.001922 0.00111199 1e-05
0.00203016 0.00111263 1e-05
0.00213833 0.00111324 1e-05
0.00224733 0.00111385 1e-05
0.00235633 0.00111444 1e-05
0.00246533 0.00111502 1e-05
0.00257434 0.00111558 1e-05
0.00268334 0.00111612 1e-05
0.00279319 0.00111665 1e-05
0.00290304 0.00111717 1e-05
0.00301289 0.00111768 1e-05
0.00312274 0.00111817 1e-05
0.00323259 0.00111865 1e-05
0.00334329 0.00111911 1e-05
0.003454 0.00111956 1e-05
0.0035647 0.00112 1e-05
0.0036754 0.00112043 1e-05
0.00378611 0.00112083 1e-05
0.00389767 0.00112123 1e-05
0.00400924 0.00112161 1e-05
0.0041208 0.00112198 1e-05
0.00423237 0.00112234 1e-05
0.00434393 0.00112268 1e-05
0.00445636 0.00112301 1e-05
0.00456879 0.00112332 1e-05
0.00468123 0.00112363 1e-05
0.00479366 0.00112392 1e-05
0.00490609 0.0011242 1e-05
0.0050194 0.00112445 1e-05
0.0051327 0.00112471 1e-05
0.00524601 0.00112494 1e-05
0.00535932 0.00112517 1e-05
0.00547262 0.00112538 1e-05
0.00558681 0.00112557 1e-05
0.005701 0.00112576 1e-05
0.00581518 0.00112594 1e-05
0.00592937 0.0011261 1e-05
0.00604356 0.00112625 1e-05
0.00615863 0.00112638 1e-05
0.00627371 0.0011265 1e-05
0.00638878 0.00112662 1e-05
0.00650386 0.00112672 1e-05
0.00661893 0.0011268 1e-05
0.0067349 0.00112688 1e-05
0.00685087 0.00112694 1e-05
0.00696684 0.00112699 1e-05
0.00708281 0.00112704 1e-05
0.00719878 0.00112706 1e-05
0.00731565 0.00112708 1e-05
0.00743252 0.00112708 1e-05
0.00754939 0.00112708 1e-05
0.00766626 0.00112706 1e-05
0.00778313 0.00112703 1e-05
0.00790091 0.00112699 1e-05
0.00801869 0.00112693 1e-05
0.00813647 0.00112687 1e-05
0.00825425 0.00112679 1e-05
0.00837203 0.00112671 1e-05
0.00843675 0.00112665 1e-05
0.00850147 0.00112659 1e-05
0.00856619 0.00112653 1e-05
0.00863091 0.00112647 1e-05
0.00869319 0.0011264 1e-05
0.00874766 0.00112634 1e-05
0.00880212 0.00112628 1e-05
0.00885658 0.00112622 1e-05
0.00891105 0.00112615 1e-05
0.00896551 0.00112608 1e-05
0.00908513 0.00112592 1e-05
0.00920475 0.00112575 1e-05
0.00932437 0.00112557 1e-05
0.00944398 0.00112537 1e-05
0.0095636 0.00112517 1e-05
0.00968415 0.00112495 1e-05
0.0098047 0.00112472 1e-05
0.00992525 0.00112448 1e-05
0.0100458 0.00112422 1e-05
0.0101663 0.00112396 1e-05
0.0102878 0.00112367 1e-05
0.0104093 0.00112338 1e-05
0.0105308 0.00112308 1e-05
0.0106523 0.00112277 1e-05
0.0107738 0.00112244 1e-05
0.0108962 0.0011221 1e-05
0.0110186 0.00112174 1e-05
0.0111411 0.00112138 1e-05
0.0112635 0.001121 1e-05
0.0113859 0.00112062 1e-05
0.0115093 0.00112021 1e-05
0.0116327 0.00111979 1e-05
0.0117561 0.00111936 1e-05
0.0118795 0.00111892 1e-05
0.0120028 0.00111847 1e-05
0.0121272 0.001118 1e-05
0.0122515 0.00111752 1e-05
0.0123759 0.00111703 1e-05
0.0125002 0.00111652 1e-05
0.0126245 0.00111601 1e-05
0.0127498 0.00111547 1e-05
0.0128752 0.00111492 1e-05
0.0130005 0.00111437 1e-05
0.0131258 0.0011138 1e-05
0.0132511 0.00111321 1e-05
0.0133774 0.00111261 1e-05
0.0135036 0.001112 1e-05
0.0136299 0.00111137 1e-05
0.0137562 0.00111073 1e-05
0.0138825 0.00111008 1e-05
0.0140098 0.00110941 1e-05
0.014137 0.00110873 1e-05
0.0142643 0.00110803 1e-05
0.0143915 0.00110733 1e-05
0.0145188 0.0011066 1e-05
0.0146471 0.00110587 1e-05
0.0147753 0.00110512 1e-05
0.0149036 0.00110435 1e-05
0.0150318 0.00110357 1e-05
0.0151601 0.00110277 1e-05
0.0152893 0.00110197 1e-05
0.0154186 0.00110115 1e-05
0.0155478 0.0011003 1e-05
0.0156771 0.00109945 1e-05
0.0158063 0.00109858 1e-05
0.0159366 0.00109771 1e-05
0.0160668 0.00109681 1e-05
0.0161971 0.00109589 1e-05
0.0163273 0.00109496 1e-05
0.0164576 0.00109402 1e-05
0.0165889 0.00109307 1e-05
0.0167201 0.00109209 1e-05
0.0168514 0.0010911 1e-05
0.0169827 0.00109009 1e-05
0.0171139 0.00108907 1e-05
0.0172462 0.00108804 1e-05
0.0173785 0.00108699 1e-05
0.0175108 0.00108591 1e-05
0.0176431 0.00108482 1e-05
0.0177754 0.00108372 1e-05
0.0179087 0.00108262 1e-05
0.018042 0.00108148 1e-05
0.0181753 0.00108032 1e-05
0.0183087 0.00107914 1e-05
0.018442 0.00107795 1e-05
0.0185763 0.00107677 1e-05
0.0187107 0.00107555 1e-05
0.018845 0.0010743 1e-05
0.0189794 0.00107302 1e-05
0.0191137 0.00107176 1e-05
0.0192491 0.00107049 1e-05
0.0193845 0.00106918 1e-05
0.0195199 0.00106783 1e-05
0.0196553 0.00106647 1e-05
0.0197907 0.00106511 1e-05
0.0199272 0.00106375 1e-05
0.0200636 0.00106235 1e-05
0.0202001 0.00106091 1e-05
0.0203365 0.00105946 1e-05
0.020473 0.00105801 1e-05
0.0206105 0.00105655 1e-05
0.020748 0.00105506 1e-05
0.0208855 0.00105352 1e-05
0.021023 0.00105197 1e-05
0.0211606 0.00105042 1e-05
0.0212991 0.00104887 1e-05
0.0214377 0.00104727 1e-05
0.0215763 0.00104564 1e-05
0.0217149 0.00104398 1e-05
0.0218535 0.00104233 1e-05
0.0219931 0.00104067 1e-05
0.0221328 0.00103897 1e-05
0.0222724 0.00103723 1e-05
0.0224121 0.00103547 1e-05
0.0225517 0.00103372 1e-05
0.0226925 0.00103195 1e-05
0.0228332 0.00103014 1e-05
0.022974 0.00102829 1e-05
0.0231147 0.00102642 1e-05
0.0232555 0.00102455 1e-05
0.0233973 0.00102267 1e-05
0.0235391 0.00102075 1e-05
0.023681 0.00101879 1e-05
0.0238228 0.0010168 1e-05
0.0239647 0.00101482 1e-05
0.0241076 0.00101282 1e-05
0.0242505 0.00101078 1e-05
0.0243935 0.0010087 1e-05
0.0245364 0.0010066 1e-05
0.0246794 0.00100449 1e-05
0.0248234 0.00100237 1e-05
0.0249675 0.00100021 1e-05
0.0251115 0.000998006 1e-05
0.0252556 0.000995785 1e-05
[...]
POINT_DATA 12075
 FIELD attributes 1
U 3 12075 float
10.0004 	0.00731909 	0 10.0004 	0.00585527 	0 10.0003 	0.00439145 	0 10.0002 	0.00292764 	0 10.0001 	0.00146382 	0 10 	0 	0
10.0001 	0.000883727 	0 10 	0.000706982 	0 10 	0.000530236 	0 10 	0.000353491 	0 10 	0.000176745 	0 10 	0 	0
10.0001 	0.00047205 	0 10.0001 	0.00037746 	0 10.0001 	0.000282869 	0 10 	0.000188279 	0 10 	9.36884e-05 	0 10 	0 	0
10 	0.000274651 	0 10 	0.000219721 	0 10 	0.000164791 	0 10 	0.00010986 	0 10 	5.49302e-05 	0 10 	0 	0
10 	8.88146e-05 	0 10 	7.10517e-05 	0 10 	5.32888e-05 	0 10 	3.55259e-05 	0 10 	1.77629e-05 	0 10 	0 	0
10 	-1.8712e-05 	0 10 	-1.49696e-05 	0 10 	-1.12272e-05 	0 10 	-7.48482e-06 	0 10 	-3.74241e-06 	0 10 	0 	0
10 	-0.000210924 	0 10 	-0.00016874 	0 10 	-0.000126555 	0 10 	-8.43698e-05 	0 10 	-4.21849e-05 	0 10 	0 	0
10 	-0.000374431 	0 10 	-0.000299545 	0 10 	-0.000224659 	0 10 	-0.000149772 	0 10 	-7.48862e-05 	0 10 	0 	0
9.99999 	-0.000425538 	0 9.99999 	-0.00034043 	0 9.99999 	-0.000255323 	0 10 	-0.000170215 	0 10 	-8.51076e-05 	0 10 	0 	0
9.17387 	0.0870994 	0 9.1308 	0.0696796 	0 9.08741 	0.0522594 	0 9.04368 	0.034839 	0 8.99962 	0.0174185 	0 8.95524 	0 	0
10.0004 	0.00731909 	0 10.0024 	0.0151722 	0 10.0045 	0.0221938 	0 10.0065 	0.0291712 	0 10.0085 	0.0361046 	0 10.0135 	0.0463223 	0 10.0163 	0.040225 	0 10.0207 	0.0401872 	0 10.0251 	0.0401495 	0 10.0296 	0.0401121 	0 10.0355 	0.0445755 	0 10.0384 	0.0379416 	0 10.0424 	0.0379027 	0 10.0463 	0.0378637 	0 10.0503 	0.0378247 	0 10.0544 	0.040928 	0 10.0566 	0.0388597 	0 10.059 	0.0401756 	0 10.0614 	0.0414932 	0 10.0638 	0.0428124 	0 10.066 	0.0452734 	0 10.0675 	0.0453903 	0 10.0688 	0.0465947 	0 10.0701 	0.0478003 	0 10.0714 	0.0490069 	0 10.0725 	0.0500265 	0 10.0726 	0.0500962 	0 10.0726 	0.0501658 	0 10.0727 	0.0502355 	0 10.0728 	0.0503052 	0 10.0729 	0.0503644 	0 10.0734 	0.0510032 	0 10.0738 	0.0516353 	0 10.0743 	0.0522679 	0 10.0748 	0.0529011 	0 10.0753 	0.0533692 	0 10.0751 	0.0536809 	0 10.0747 	0.0538865 	0 10.0743 	0.0540921 	0 10.0739 	0.0542979 	0 10.0734 	0.0542647 	0 10.0729 	0.0544315 	0 10.0717 	0.0544291 	0 10.0706 	0.0544267 	0 10.0695 	0.0544243 	0 10.0678 	0.0541529 	0 10.0674 	0.0542634 	0 10.0657 	0.0541594 	0 10.064 	0.0540553 	0 10.0623 	0.0539512 	0 10.0597 	0.053562 	0 10.0596 	0.0536588 	0 10.0575 	0.0535063 	0 10.0554 	0.0533538 	0 10.0533 	0.0532012 	0 10.0496 	0.0527528 	0 10.0501 	0.0528676 	0 10.0477 	0.0527087 	0 10.0453 	0.0525497 	0 10.0428 	0.0523906 	0 10.038 	0.0519311 	0 10.0394 	0.0520956 	0 10.0367 	0.0519625 	0 10.034 	0.0518293 	0 10.0313 	0.0516962 	0 10.0254 	0.051254 	0 10.0277 	0.0514939 	0 10.0249 	0.0514276 	0 10.022 	0.0513613 	0 10.0192 	0.051295 	0 10.012 	0.050924 	0 10.0155 	0.0512845 	0 10.0124 	0.0513186 	0 10.0094 	0.0513528 	0 10.0064 	0.0513869 	0 9.99795 	0.0511082 	0 10.0026 	0.0516503 	0 9.99956 	0.0519313 	0 9.99649 	0.0522125 	0 9.99342 	0.0524937 	0 9.98374 	0.0525142 	0 9.98982 	0.0534061 	0 9.98674 	0.053969 	0 9.98365 	0.054532 	0 9.98058 	0.0550951 	0 9.96959 	0.0553095 	0 9.9773 	0.0565981 	0 9.97459 	0.0580004 	0 9.97189 	0.0594029 	0 9.9692 	0.0608055 	0 9.95738 	0.0620081 	0 9.96741 	0.0641362 	7.72475e-22 9.96634 	0.0660478 	6.23964e-21 9.96529 	0.0679597 	1.17047e-20 9.96424 	0.0698718 	1.71675e-20 9.95281 	0.0708971 	1.40765e-20 9.96517 	0.07229 	1.06483e-19 9.96511 	0.0729078 	9.94818e-20 9.96505 	0.0735256 	9.24882e-20 9.965 	0.0741434 	8.55024e-20 9.95353 	0.0737619 	-1.7363e-20 9.96647 	0.0734759 	-4.75118e-20 9.96644 	0.0726557 	-5.26342e-20 9.96641 	0.0718355 	-5.77519e-20 9.96637 	0.0710153 	-6.28648e-20 9.95446 	0.0699117 	-2.22551e-20 9.96698 	0.0688793 	-1.98666e-20 9.96597 	0.0673319 	-1.36151e-20 9.96495 	0.0657845 	-7.36503e-21 9.96393 	0.064237 	-1.11622e-21 9.95099 	0.0626758 	8.85981e-21 9.96302 	0.0617066 	-3.90058e-21 9.96106 	0.0600615 	-2.41667e-20 9.95908 	0.0584162 	-4.44372e-20 9.95709 	0.0567706 	-6.47123e-20 9.94312 	0.0549005 	-9.49431e-20 9.95481 	0.0542181 	-1.45081e-19 9.95205 	0.0527352 	-1.31757e-19 9.94928 	0.0512519 	-1.18419e-19 9.9465 	0.0497683 	-1.05065e-19 9.9316 	0.0477657 	-3.15873e-20 9.94297 	0.0472454 	5.18762e-20 9.93947 	0.0458784 	6.67718e-20 9.93596 	0.044511 	8.16486e-20 9.93243 	0.0431432 	9.65065e-20 9.91668 	0.0411136 	3.93881e-20 9.92765 	0.0406217 	-7.54964e-20 9.9234 	0.0393077 	-8.23393e-20 9.91914 	0.0379932 	-8.9153e-20 9.91487 	0.0366783 	-9.59375e-20 9.89831 	0.0347026 	-2.22575e-22 9.90876 	0.0342141 	9.18316e-20 9.90374 	0.0329368 	8.17992e-20 9.8987 	0.031659 	7.17381e-20 9.89365 	0.0303808 	6.16483e-20 9.87637 	0.0284845 	-2.69119e-20 9.88611 	0.0279937 	-1.01033e-19 9.88031 	0.0267421 	-1.25391e-19 9.8745 	0.0254901 	-1.49737e-19 9.86868 	0.0242375 	-1.74073e-19 9.85086 	0.0224187 	-1.4083e-19 9.8596 	0.0219511 	-1.78733e-19 9.85306 	0.0207463 	-1.65157e-19 9.84651 	0.019541 	-1.51573e-19 9.83994 	0.0183351 	-1.3798e-19 9.82186 	0.0166023 	-8.44247e-20 9.82922 	0.0161778 	-7.32655e-20 9.82199 	0.0150386 	-5.30758e-20 9.81475 	0.0138988 	-3.28894e-20 9.80749 	0.0127584 	-1.27062e-20 9.78957 	0.0111203 	4.11603e-21 9.7951 	0.0107185 	0 9.78723 	0.00964094 	0 9.77935 	0.00856272 	0 9.77146 	0.00748385 	0 9.7542 	0.00594942 	0 9.75735 	0.00552487 	-1.47444e-20 9.74889 	0.0044966 	-3.53816e-20 9.74041 	0.00346762 	-5.60218e-20 9.73192 	0.00243792 	-7.6665e-20 9.71592 	0.00102694 	-1.00116e-19 9.71607 	0.000528958 	-1.15471e-19 9.70706 	-0.000458533 	-1.16017e-19 9.69802 	-0.00144679 	-1.16554e-19 9.68897 	-0.00243582 	-1.17082e-19 9.67488 	-0.00369033 	-1.07953e-19 9.67142 	-0.00430853 	-6.26529e-20 9.66189 	-0.00525765 	-3.10732e-20 9.65234 	-0.00620759 	4.90677e-22 9.64278 	-0.00715836 	3.20386e-20 9.63125 	-0.00821503 	5.77439e-20 9.62812 	-0.0085866 	6.19256e-20 9.62267 	-0.00908629 	6.19632e-20 9.61722 	-0.00958623 	6.19977e-20 9.61176 	-0.0100864 	6.20289e-20 9.6065 	-0.0105681 	6.20558e-20 9.60185 	-0.0109927 	6.251e-20 9.59719 	-0.0114175 	6.29635e-20 9.59252 	-0.0118426 	6.34162e-20 9.58786 	-0.0122678 	6.38681e-20 9.58017 	-0.0128138 	6.48253e-20 9.57234 	-0.0136115 	5.14985e-20 9.56181 	-0.0145126 	3.81698e-20 9.55125 	-0.0154148 	2.48393e-20 9.54067 	-0.016318 	1.15069e-20 9.52101 	-0.0175441 	-5.47194e-22 9.51822 	-0.0181529 	-1.08618e-20 9.50731 	-0.0190366 	-2.35206e-20 9.49638 	-0.0199213 	-3.61776e-20 9.48543 	-0.0208071 	-4.88327e-20 9.46015 	-0.0221345 	-6.14974e-20 9.46172 	-0.0226314 	-6.40435e-20 9.45048 	-0.0235032 	-7.16426e-20 9.43921 	-0.024376 	-7.92369e-20 9.42793 	-0.0252499 	-8.68262e-20 9.39792 	-0.0266013 	-1.03443e-19 9.40317 	-0.0270664 	-1.43461e-19 9.39164 	-0.0279309 	-1.33349e-19 9.38009 	-0.0287966 	-1.23257e-19 9.36851 	-0.0296634 	-1.13185e-19 9.3347 	-0.0309614 	-4.29953e-20 9.34293 	-0.0314685 	-2.86623e-20 9.33115 	-0.0323282 	-2.03637e-20 9.31934 	-0.0331891 	-1.2064e-20 9.30752 	-0.0340511 	-3.7631e-21 9.27081 	-0.0352223 	0 9.28134 	-0.0358374 	0 9.26934 	-0.0366948 	0 9.25733 	-0.0375533 	0 9.24529 	-0.038413 	0 9.2065 	-0.0393946 	0 9.21873 	-0.040175 	2.39357e-21 9.20656 	-0.0410332 	1.00201e-20 9.19437 	-0.0418927 	1.76455e-20 9.18215 	-0.0427535 	2.52697e-20 9.14204 	-0.0434949 	4.32401e-20 9.15543 	-0.0444882 	1.5904e-19 9.14311 	-0.0453508 	1.62602e-19 9.13077 	-0.0462147 	1.66187e-19 9.1184 	-0.0470799 	1.69795e-19 9.07762 	-0.0475417 	4.35424e-20 9.09171 	-0.048785 	2.37291e-20 9.07928 	-0.049656 	1.66417e-20 9.06682 	-0.0505284 	9.55295e-21 9.05416 	-0.0513979 	2.59115e-21 9.01345 	-0.0515578 	1.70838e-20 9.02644 	-0.0530476 	1.10531e-19 9.01534 	-0.0539637 	1.17569e-19 9.00278 	-0.0548471 	1.1951e-19 8.98702 	-0.0556111 	1.07872e-19 8.94969 	-0.0555582 	4.09058e-21 8.95988 	-0.0572288 	-1.05992e-19 8.95152 	-0.0582719 	-1.35258e-19 8.9389 	-0.0591722 	-1.46008e-19 8.92075 	-0.0597901 	-1.35709e-19 8.88648 	-0.0595772 	-6.36675e-20 8.89417 	-0.0614187 	-1.88772e-19 8.88804 	-0.0626352 	-2.31133e-19 8.87537 	-0.0635569 	-2.34398e-19 8.85547 	-0.0639911 	-1.84618e-19 8.82395 	-0.0636398 	-4.94758e-20 8.82945 	-0.0656099 	-2.6008e-20 8.8251 	-0.0670246 	-1.1164e-20 8.8124 	-0.0679675 	-3.64342e-21 8.79126 	-0.068195 	0 8.7622 	-0.0677494 	0 8.76575 	-0.0698258 	0 8.7628 	-0.0714619 	0 8.75009 	-0.0724315 	0 8.72816 	-0.0724421 	2.26561e-21 8.70131 	-0.0719385 	5.74502e-21 8.70317 	-0.0741179 	2.45809e-21 8.70131 	-0.076001 	0 8.6886 	-0.0769992 	0 8.66626 	-0.0767732 	2.75355e-21 8.64137 	-0.0762215 	6.23854e-21 8.64177 	-0.0784811 	2.95236e-21 8.64077 	-0.0806179 	6.78273e-22 8.62808 	-0.0816451 	7.37769e-21 8.60561 	-0.0811795 	2.597e-20 8.58244 	-0.0806054 	4.54225e-20 8.58158 	-0.0829406 	1.78546e-19 8.58064 	-0.0852783 	3.11671e-19 8.5679 	-0.0862695 	3.12267e-19 8.54621 	-0.08567 	1.79227e-19 8.52453 	-0.0850701 	4.6183e-20 8.5226 	-0.0874216 	2.70941e-20 8.52058 	-0.0897756 	8.00763e-21 8.50845 	-0.0907528 	7.62108e-22 8.48806 	-0.090195 	4.10149e-21 8.46769 	-0.0896368 	7.44075e-21 8.46482 	-0.0920219 	4.31034e-21 8.46186 	-0.0944095 	1.18137e-21 8.45036 	-0.0953857 	-1.3332e-22 8.43112 	-0.0948761 	-4.01694e-21 8.41189 	-0.0943662 	-7.89985e-21 8.40821 	-0.096785 	-5.38837e-20 8.40444 	-0.0992062 	-9.98742e-20 8.39359 	-0.100178 	-1.02295e-19 8.37534 	-0.0997059 	-6.03644e-20 8.35709 	-0.0992332 	-1.84314e-20 8.35269 	-0.101651 	8.54046e-20 8.34821 	-0.10407 	1.89231e-19 8.33801 	-0.10504 	1.99629e-19 8.32064 	-0.104637 	1.12761e-19 8.30327 	-0.104235 	2.58902e-20 8.29824 	-0.106655 	1.3649e-20 8.29312 	-0.109078 	1.40196e-21 8.28357 	-0.110047 	-4.35753e-21 8.26696 	-0.109709 	6.14691e-22 8.25036 	-0.10937 	5.58746e-21 8.24474 	-0.111775 	-6.55811e-22 8.23891 	-0.114125 	-7.13844e-21 8.22963 	-0.115056 	-1.93856e-20 8.21423 	-0.114891 	-6.83477e-20 8.1983 	-0.114631 	-1.20509e-19 8.19217 	-0.117028 	-2.56358e-19 8.18532 	-0.119121 	-3.5814e-19 8.17608 	-0.120087 	-3.34522e-19 8.16237 	-0.120203 	-2.14174e-19 8.14702 	-0.120007 	-5.82587e-20 8.1404 	-0.122365 	7.11786e-20 8.13274 	-0.124195 	1.48508e-19 8.12352 	-0.12521 	1.45363e-19 8.11128 	-0.125641 	9.3876e-20 8.09645 	-0.125569 	6.74611e-22 8.08941 	-0.127959 	-9.14828e-20 8.08109 	-0.129593 	-1.35492e-19 8.07184 	-0.130673 	-1.4421e-19 8.06084 	-0.131394 	-1.23056e-19 8.04644 	-0.131407 	-4.29775e-20 8.039 	-0.133838 	-3.18086e-20 8.03015 	-0.135265 	-2.07114e-20 8.02083 	-0.136385 	-9.63789e-21 8.01087 	-0.137367 	2.73788e-21 7.99682 	-0.137412 	2.38896e-20 7.989 	-0.1398 	9.19102e-22 7.97974 	-0.141 	-5.67626e-21 7.97037 	-0.142152 	-1.15905e-20 7.96095 	-0.143305 	-1.75062e-20 7.94757 	-0.143533 	-3.9388e-21 7.9392 	-0.145722 	-1.9899e-20 7.92981 	-0.146918 	-2.63358e-20 7.92038 	-0.148115 	-3.27773e-20 7.9109 	-0.149313 	-3.92235e-20 7.89864 	-0.149839 	-5.64385e-20 7.88979 	-0.151808 	1.41492e-20 7.88033 	-0.153048 	1.52781e-20 7.87082 	-0.154288 	1.63768e-20 7.86127 	-0.15553 	1.74451e-20 7.84996 	-0.156331 	-2.61258e-20 7.84074 	-0.158088 	1.42327e-20 7.83121 	-0.159364 	1.58388e-20 7.82163 	-0.160641 	1.74172e-20 7.812 	-0.161919 	1.89678e-20 7.80153 	-0.162977 	2.24408e-21 7.79234 	-0.164475 	-1.44264e-22 7.783 	-0.165739 	-1.09625e-22 7.7736 	-0.167003 	-7.49968e-23 7.76416 	-0.168269 	-4.03799e-23 7.75531 	-0.169449 	-8.1204e-24 7.75487 	-0.169506 	-6.41644e-24 7.75443 	-0.169563 	-4.71247e-24 7.75399 	-0.16962 	-3.00847e-24 7.75355 	-0.169677 	-1.30445e-24 7.75316 	-0.169723 	0 7.74313 	-0.171067 	0 7.73306 	-0.172402 	0 7.72293 	-0.173738 	0 7.71275 	-0.175075 	0 7.7037 	-0.176166 	0 7.69314 	-0.177775 	0 7.68289 	-0.179149 	0 7.67259 	-0.180525 	0 7.66223 	-0.181901 	0 7.6541 	-0.182815 	0 7.64297 	-0.184697 	0 7.63248 	-0.186114 	0 7.62194 	-0.187531 	0 7.61135 	-0.18895 	0 7.60406 	-0.18968 	0 7.59236 	-0.191824 	0 7.58162 	-0.193259 	0 7.57082 	-0.194695 	0 7.55996 	-0.196132 	0 7.55347 	-0.196643 	0 7.54132 	-0.198927 	0 7.5302 	-0.200462 	0 7.51916 	-0.201902 	0 7.5092 	-0.203105 	0 7.50239 	-0.203638 	0 7.49008 	-0.205917 	0 7.47837 	-0.207707 	-5.10866e-21 7.46708 	-0.209155 	-1.38024e-20 7.45795 	-0.210129 	-2.25147e-20 7.45075 	-0.210686 	-3.12446e-20 7.43819 	-0.212965 	-2.14779e-20 7.42586 	-0.215014 	-1.41288e-20 7.41427 	-0.216463 	-1.30535e-20 7.40596 	-0.217191 	-1.99417e-20 7.39841 	-0.217748 	-2.87178e-20 7.38569 	-0.219999 	-1.88598e-20 7.37289 	-0.222251 	-8.99633e-21 7.36134 	-0.22364 	0 7.35334 	-0.224201 	0 7.34532 	-0.224764 	0 7.33232 	-0.226975 	0 7.31923 	-0.229187 	0 7.30816 	-0.230576 	-2.57351e-21 7.29978 	-0.23115 	-6.6854e-21 7.29138 	-0.231724 	-1.07968e-20 7.27814 	-0.233923 	-4.07347e-20 7.26481 	-0.236123 	-7.06695e-20 7.25418 	-0.237537 	-7.5067e-20 7.24533 	-0.238122 	-6.00738e-20 7.23645 	-0.238708 	-4.50748e-20 7.2229 	-0.240905 	-2.27283e-20 7.20927 	-0.243102 	-3.69168e-22 7.19911 	-0.244484 	-8.32901e-21 7.18971 	-0.245079 	-2.78777e-20 7.18033 	-0.245628 	-4.80943e-20 7.16643 	-0.247773 	-5.90616e-20 7.15351 	-0.249675 	-6.64516e-20 7.14301 	-0.251004 	-6.54446e-20 7.13293 	-0.251854 	-4.90899e-20 7.12314 	-0.252365 	-2.18594e-20 7.10897 	-0.254465 	-1.89652e-20 7.09683 	-0.256059 	-1.32628e-20 7.08592 	-0.257341 	-5.82671e-21 7.07512 	-0.258447 	0 7.06479 	-0.258912 	0 7.05022 	-0.260955 	0 7.03878 	-0.262227 	0 7.02749 	-0.263455 	0 7.01613 	-0.264683 	0 7.00531 	-0.265228 	0 6.99136 	-0.266979 	0 6.97971 	-0.268146 	0 6.96801 	-0.269314 	0 6.95626 	-0.270482 	0 6.94474 	-0.271293 	-5.78659e-21 6.93149 	-0.272695 	5.34485e-23 6.91944 	-0.27379 	1.40233e-22 6.90734 	-0.274885 	2.27049e-22 6.89519 	-0.275981 	3.13894e-22 6.88302 	-0.277042 	5.14612e-22 6.88152 	-0.277185 	1.30003e-21 6.88014 	-0.277298 	1.07752e-21 6.87876 	-0.277411 	8.54883e-22 6.87738 	-0.277524 	6.32126e-22 6.876 	-0.277636 	4.10578e-22 6.86472 	-0.278547 	-1.40289e-21 6.8534 	-0.279459 	-3.22453e-21 6.84204 	-0.280372 	-5.0544e-21 6.83064 	-0.281286 	-6.89254e-21 6.82066 	-0.281965 	1.50643e-21 6.80699 	-0.283179 	3.78412e-21 6.7939 	-0.284118 	9.23977e-21 6.78077 	-0.285058 	1.4693e-20 6.76759 	-0.285998 	2.01438e-20 6.75752 	-0.286423 	2.58053e-20 6.74277 	-0.287848 	2.02089e-20 6.72935 	-0.288677 	1.92497e-20 6.71589 	-0.289507 	1.8286e-20 6.70269 	-0.290286 	1.73427e-20 6.69371 	-0.290357 	1.67291e-20 6.6783 	-0.291782 	1.54494e-20 6.66414 	-0.292674 	1.39347e-20 6.65039 	-0.29338 	1.23359e-20 6.63868 	-0.293748 	1.23422e-20 6.62949 	-0.293698 	1.43225e-20 6.6138 	-0.294997 	1.09973e-20 6.59856 	-0.296094 	8.36786e-21 6.58456 	-0.296688 	7.45828e-21 6.5744 	-0.296654 	9.24948e-21 6.56501 	-0.296494 	1.15832e-20 6.54903 	-0.297687 	7.92444e-21 6.53299 	-0.298882 	4.26158e-21 6.51947 	-0.299313 	-6.00079e-22 6.50993 	-0.299008 	-3.32498e-21 6.50039 	-0.298703 	-6.05027e-21 6.48418 	-0.299759 	-3.75688e-21 6.46792 	-0.300815 	-1.46476e-21 6.45523 	-0.301122 	0 6.4456 	-0.300661 	0 6.43598 	-0.3002 	0 6.4196 	-0.301101 	0 6.4032 	-0.301997 	-1.84806e-23 6.39158 	-0.302077 	-2.26621e-21 6.38171 	-0.301517 	-4.52217e-21 6.37206 	-0.30088 	-6.77922e-21 6.35556 	-0.301607 	-4.8891e-21 6.34102 	-0.301995 	-3.91829e-21 6.32939 	-0.301886 	-4.29046e-21 6.31862 	-0.301478 	-3.87269e-21 6.30903 	-0.300661 	-2.37461e-21 6.2925 	-0.30121 	-2.06258e-20 6.27996 	-0.301076 	-2.31681e-20 6.2684 	-0.300777 	-2.19043e-20 6.25683 	-0.300478 	-2.06396e-20 6.24726 	-0.299518 	-6.01065e-22 6.23179 	-0.299716 	-1.76862e-20 6.22036 	-0.299221 	-1.67471e-20 6.20892 	-0.298727 	-1.58078e-20 6.19749 	-0.298232 	-1.48683e-20 6.18709 	-0.297405 	-6.65199e-21 6.17379 	-0.297065 	-5.65766e-21 6.16256 	-0.296372 	-2.28354e-21 6.15133 	-0.29568 	1.0906e-21 6.14011 	-0.294987 	4.46475e-21 6.1289 	-0.29429 	7.84744e-21 6.12872 	-0.294282 	7.83593e-21 6.12857 	-0.29427 	7.86141e-21 6.12842 	-0.294258 	7.88689e-21 6.12827 	-0.294246 	7.91237e-21 6.12812 	-0.294234 	7.93785e-21 6.11701 	-0.293379 	1.00774e-20 6.10591 	-0.292525 	1.22163e-20 6.09482 	-0.29167 	1.43544e-20 6.08374 	-0.290815 	1.64917e-20 6.0741 	-0.289636 	1.13467e-20 6.06269 	-0.288857 	1.12444e-20 6.05177 	-0.287797 	9.27991e-21 6.04086 	-0.286737 	7.31615e-21 6.02997 	-0.285677 	5.35314e-21 6.02202 	-0.283964 	3.59254e-21 6.0105 	-0.283259 	4.45739e-21 5.99999 	-0.282008 	2.86445e-21 5.9895 	-0.280757 	1.27185e-21 5.97977 	-0.279342 	5.26231e-22 5.973 	-0.277278 	3.14048e-21 5.96188 	-0.276395 	9.35199e-22 5.9514 	-0.275191 	6.11125e-22 5.94139 	-0.273752 	1.6724e-21 5.9336 	-0.271834 	5.777e-21 5.92734 	-0.269586 	1.19749e-20 5.91674 	-0.268499 	1.56554e-20 5.90629 	-0.26735 	1.90877e-20 5.89684 	-0.265735 	2.06688e-20 5.89101 	-0.263351 	1.61815e-20 5.88532 	-0.260948 	1.15397e-20 5.87531 	-0.259678 	1.5536e-20 5.86532 	-0.258409 	1.95323e-20 5.85739 	-0.25654 	1.93393e-20 5.85225 	-0.254014 	1.48673e-20 5.84717 	-0.251488 	1.03956e-20 5.8378 	-0.250063 	1.42576e-20 5.82846 	-0.248638 	1.81196e-20 5.82198 	-0.246581 	1.74142e-20 5.81747 	-0.243965 	1.07729e-20 5.81303 	-0.24135 	4.12986e-21 5.80435 	-0.239798 	3.17584e-21 5.79593 	-0.238202 	2.16146e-21 5.79082 	-0.235962 	2.9179e-22 5.78677 	-0.233358 	-2.80944e-21 5.78297 	-0.230686 	-6.1405e-21 5.77502 	-0.229036 	-2.29238e-21 5.76848 	-0.227125 	-6.70615e-22 5.76402 	-0.224831 	-2.32953e-21 5.76017 	-0.222354 	-5.07251e-21 5.75702 	-0.219664 	-9.09257e-21 5.74981 	-0.217949 	1.63504e-21 5.74505 	-0.215801 	4.06503e-21 5.74124 	-0.213493 	3.41642e-21 5.73761 	-0.211151 	1.96916e-21 5.7351 	-0.208489 	-7.03652e-21 5.72877 	-0.206732 	-4.75818e-21 5.72554 	-0.204456 	-3.29303e-21 5.72237 	-0.202182 	-1.82674e-21 5.71926 	-0.199908 	-3.59318e-22 5.71709 	-0.197398 	0 5.7124 	-0.195525 	0 5.7098 	-0.193329 	0 5.70725 	-0.191134 	0 5.70476 	-0.18894 	0 5.70283 	-0.186628 	0 5.69964 	-0.184722 	2.54338e-23 5.69764 	-0.18265 	6.69449e-23 5.69569 	-0.180579 	1.0843e-22 5.69378 	-0.178509 	1.4989e-22 5.69209 	-0.176409 	1.07042e-22 5.69102 	-0.175531 	2.63825e-22 5.69031 	-0.174608 	-5.325e-22 5.68961 	-0.173685 	-1.32786e-21 5.68893 	-0.172762 	-2.12225e-21 5.68821 	-0.171788 	-2.96009e-21 5.68759 	-0.170817 	-3.71469e-21 5.68698 	-0.169846 	-4.46868e-21 5.68638 	-0.168876 	-5.22206e-21 5.68579 	-0.167906 	-5.97483e-21 5.68532 	-0.166893 	-5.84363e-21 5.68457 	-0.165225 	-6.59261e-21 5.68379 	-0.163533 	-5.81832e-21 5.68305 	-0.161842 	-5.03918e-21 5.68235 	-0.160152 	-4.25519e-21 5.68193 	-0.158361 	7.55597e-22 5.68178 	-0.156989 	4.71387e-21 5.68146 	-0.155564 	6.44979e-21 5.68117 	-0.15414 	8.1817e-21 5.68091 	-0.152718 	9.9096e-21 5.681 	-0.151164 	3.95686e-21 5.68139 	-0.150123 	9.52295e-22 5.68146 	-0.149023 	-1.7099e-21 5.68155 	-0.147925 	-4.37036e-21 5.68167 	-0.146827 	-7.02908e-21 5.68212 	-0.1456 	-9.7637e-21 5.68301 	-0.144933 	-1.59939e-20 5.6834 	-0.144225 	-1.6546e-20 5.6838 	-0.143519 	-1.70953e-20 5.68422 	-0.142812 	-1.76418e-20 5.68493 	-0.142004 	-7.88175e-21 5.68622 	-0.141758 	-3.65644e-21 5.68689 	-0.141501 	-1.17653e-21 5.68753 	-0.141244 	1.23626e-21 5.68821 	-0.140977 	3.46985e-21 5.68904 	-0.140656 	4.68559e-21 5.69057 	-0.140865 	1.31824e-20 5.69158 	-0.141078 	1.54772e-20 5.69241 	-0.141291 	1.57842e-20 5.69326 	-0.141488 	1.30734e-20 5.69414 	-0.141654 	4.47383e-21 5.69585 	-0.142317 	3.16794e-21 5.69715 	-0.142996 	1.87806e-21 5.69811 	-0.143688 	6.01138e-22 5.69903 	-0.144372 	-1.36411e-21 5.69991 	-0.145049 	-3.94178e-21 5.70175 	-0.146191 	-1.56386e-21 5.70329 	-0.147354 	0 5.7043 	-0.14856 	0 5.70518 	-0.149787 	-1.88452e-21 5.70599 	-0.151021 	-4.48724e-21 5.70786 	-0.152694 	-2.0955e-21 5.70959 	-0.154375 	1.50518e-22 5.71058 	-0.156125 	1.36992e-21 5.7113 	-0.157927 	5.09448e-21 5.71196 	-0.159732 	9.01599e-21 5.71379 	-0.161951 	1.54894e-20 5.71557 	-0.164168 	2.19636e-20 5.71649 	-0.166473 	2.2126e-20 5.71697 	-0.168851 	1.64309e-20 5.7174 	-0.171227 	1.07367e-20 5.7191 	-0.173998 	1.1498e-20 5.72074 	-0.176767 	1.2261e-20 5.72158 	-0.179629 	9.7507e-21 5.72177 	-0.182583 	3.93298e-21 5.72188 	-0.185535 	-1.8836e-21 5.72337 	-0.188864 	-1.17408e-20 5.72478 	-0.192191 	-2.15958e-20 5.72546 	-0.19562 	-2.32292e-20 5.72527 	-0.199152 	-1.53326e-20 5.72499 	-0.202681 	-7.43786e-21 5.72618 	-0.206574 	6.05565e-21 5.72728 	-0.210464 	1.95454e-20 5.72772 	-0.214