0 	0 	0 	0
0.000446734 	3.86492e-05 	0.00363969 	-9.98877e-26
0.000893467 	7.55806e-05 	0.00724259 	-1.96848e-25
0.0013402 	3.41605e-05 	0.00965827 	-2.17126e-25
0.00178693 	-7.68189e-05 	0.0109924 	-1.67034e-25
0.00223367 	-0.000191084 	0.0122934 	-1.14363e-25
0.0026804 	-0.00035693 	0.0128081 	-6.74947e-26
0.00312714 	-0.000522776 	0.0133227 	-2.06263e-26
0.00357387 	-0.000690888 	0.0137142 	-2.62152e-26
0.0040206 	-0.000858774 	0.0140033 	-7.71096e-26
0.00446734 	-0.00102692 	0.0142853 	-1.31558e-25
0.00491407 	-0.00118221 	0.0144248 	-2.06169e-25
0.0053608 	-0.0013375 	0.0145643 	-2.80779e-25
0.00580754 	-0.00148406 	0.0146183 	-2.96743e-25
0.00625427 	-0.00162255 	0.0146053 	-2.68734e-25
0.00670101 	-0.00176029 	0.0145822 	-2.34226e-25
0.00714774 	-0.00188128 	0.014434 	-1.59616e-25
0.00759447 	-0.00200227 	0.0142857 	-8.50055e-26
0.00804121 	-0.00211417 	0.0140762 	-4.29686e-26
0.00848794 	-0.00221895 	0.0138236 	-2.00836e-26
0.00893467 	-0.00232262 	0.0135637 	0
0.00938141 	-0.00241298 	0.0132376 	0
0.00982814 	-0.00250334 	0.0129115 	0
0.0102749 	-0.00258612 	0.0125552 	0
0.0107216 	-0.0026637 	0.0121798 	0
0.0111683 	-0.00274005 	0.0118004 	0
0.0116151 	-0.00280624 	0.0113931 	0
0.0120618 	-0.00287242 	0.0109858 	0
0.0125085 	-0.0029324 	0.0105666 	0
0.0129553 	-0.00298863 	0.0101404 	0
0.013402 	-0.00304369 	0.00971307 	0
0.0138487 	-0.0030916 	0.00927839 	0
0.0142955 	-0.00313951 	0.0088437 	0
0.0147422 	-0.00318314 	0.00840878 	0
0.0151889 	-0.00322451 	0.00797362 	0
0.0156357 	-0.00326506 	0.00753946 	0
0.0160824 	-0.00330164 	0.00710963 	0
0.0165291 	-0.00333823 	0.0066798 	0
0.0169759 	-0.00337265 	0.00625616 	0
0.0174226 	-0.00340608 	0.00583528 	0
0.0178693 	-0.00343917 	0.00541657 	0
0.0183161 	-0.00347093 	0.00500638 	0
0.0187628 	-0.0035027 	0.00459619 	0
0.0192095 	-0.00353422 	0.00419381 	0
0.0196563 	-0.00356567 	0.00379456 	0
0.020103 	-0.00359731 	0.00339757 	0
0.0205497 	-0.00362966 	0.00300837 	0
0.0209965 	-0.00366201 	0.00261916 	0
0.0214432 	-0.00369577 	0.00223601 	0
0.0218899 	-0.00373003 	0.00185504 	0
0.0223367 	-0.00376497 	0.00147547 	0
0.0227834 	-0.00380189 	0.00110026 	0
0.0232302 	-0.00383882 	0.000725041 	0
0.0236769 	-0.00387835 	0.000351963 	0
0.0241236 	-0.00391869 	-2.03897e-05 	0
0.0245704 	-0.00396018 	-0.000392833 	0
0.0250171 	-0.00400462 	-0.000765308 	0
0.0254638 	-0.00404906 	-0.00113778 	0
0.0259106 	-0.00409696 	-0.00151272 	0
0.0263573 	-0.00414574 	-0.00188824 	0
0.026804 	-0.00419585 	-0.00226554 	0
0.0272508 	-0.00424891 	-0.00264677 	0
0.0276975 	-0.00430197 	-0.003028 	0
0.0281442 	-0.00435839 	-0.00341568 	0
0.028591 	-0.00441551 	-0.00380474 	0
0.0290377 	-0.00447386 	-0.00419688 	0
0.0294844 	-0.0045346 	-0.00459515 	0
0.0299312 	-0.00459533 	-0.00499342 	0
0.0303779 	-0.0046585 	-0.00539976 	0
0.0308246 	-0.00472208 	-0.00580759 	0
0.0312714 	-0.00478632 	-0.0062185 	0
0.0317181 	-0.00485168 	-0.00663497 	0
0.0321648 	-0.00491705 	-0.00705144 	0
0.0326116 	-0.00498275 	-0.00747331 	0
0.0330583 	-0.00504848 	-0.00789598 	0
0.033505 	-0.00511368 	-0.00831942 	0
0.0339518 	-0.00517801 	-0.00874405 	0
0.0343985 	-0.00524234 	-0.00916868 	0
0.0348452 	-0.00530345 	-0.00958943 	0
0.035292 	-0.00536419 	-0.0100097 	0
0.0357387 	-0.00542234 	-0.0104246 	0
0.0361854 	-0.00547679 	-0.0108316 	0
0.0366322 	-0.00553125 	-0.0112386 	0
0.0370789 	-0.00557665 	-0.0116224 	0
0.0375256 	-0.00562134 	-0.0120041 	0
0.0379724 	-0.00565973 	-0.0123682 	1.16357e-26
0.0384191 	-0.00569014 	-0.0127085 	4.05377e-26
0.0388658 	-0.00572055 	-0.0130489 	6.94398e-26
0.0393126 	-0.00573214 	-0.0133313 	9.27479e-26
0.0397593 	-0.00574282 	-0.01361 	1.16952e-25
0.040206 	-0.00574188 	-0.0138505 	1.10974e-25
0.0406528 	-0.00572779 	-0.014045 	6.71257e-26
0.0410995 	-0.00571369 	-0.0142395 	2.32778e-26
0.0415462 	-0.00567317 	-0.0143334 	-1.30703e-26
0.041993 	-0.00563224 	-0.0144239 	-4.81806e-26
0.0424397 	-0.00557866 	-0.0144584 	-5.83381e-26
0.0428864 	-0.00551244 	-0.014432 	-4.33923e-26
0.0433332 	-0.00544581 	-0.0144046 	-2.83824e-26
0.0437799 	-0.00535161 	-0.014238 	-1.61143e-26
0.0442266 	-0.00525724 	-0.0140688 	-5.20849e-27
0.0446734 	-0.00512876 	-0.0137741 	-1.71991e-27
0.0451201 	-0.00496709 	-0.013353 	-5.32114e-27
0.0455668 	-0.00480138 	-0.012922 	-9.24415e-27
0.0460136 	-0.00442089 	-0.0119982 	-2.62353e-26
0.0464603 	-0.00403896 	-0.0110712 	-4.31965e-26
0.046907 	-0.00342458 	-0.00975942 	-5.14581e-26
0.0473538 	-0.00260238 	-0.00810984 	-4.78569e-26
0.0478005 	-0.00177095 	-0.00643431 	-4.11747e-26
0.0482472 	-0.00113422 	-0.00461308 	-2.42135e-26
0.048694 	-0.000497494 	-0.00279186 	-7.25241e-27
0.0491407 	-0.000172499 	-0.00153789 	0
0.0495874 	-8.25456e-05 	-0.000734851 	0
0.0500342 	-2.40161e-07 	-8.89759e-09 	9.10579e-31
0.0504809 	-3.37187e-07 	-4.87759e-08 	2.36239e-29
0.0509276 	-4.34213e-07 	-8.86541e-08 	4.63372e-29
0.0513744 	-4.38879e-07 	-1.17125e-07 	8.58037e-29
0.0518211 	-3.73483e-07 	-1.33688e-07 	1.33308e-28
0.0522678 	-3.131e-07 	-1.49541e-07 	1.78557e-28
0.0527146 	-2.85752e-07 	-1.53293e-07 	1.55843e-28
0.0531613 	-2.58404e-07 	-1.57045e-07 	1.3313e-28
0.053608 	-2.38642e-07 	-1.59635e-07 	8.85994e-29
0.0540548 	-2.23304e-07 	-1.61181e-07 	4.10953e-29
0.0545015 	-2.08542e-07 	-1.62748e-07 	0
0.0549482 	-1.97537e-07 	-1.63848e-07 	0
0.055395 	-1.86531e-07 	-1.64947e-07 	0
0.0558417 	-1.76842e-07 	-1.6596e-07 	0
0.0562884 	-1.67904e-07 	-1.66857e-07 	0
0.0567352 	-1.59162e-07 	-1.67764e-07 	0
0.0571819 	-1.5158e-07 	-1.68536e-07 	0
0.0576286 	-1.43999e-07 	-1.69307e-07 	0
0.0580754 	-1.37113e-07 	-1.7007e-07 	0
0.0585221 	-1.30596e-07 	-1.70794e-07 	0
0.0589688 	-1.24224e-07 	-1.71541e-07 	0
0.0594156 	-1.18594e-07 	-1.72291e-07 	0
0.0598623 	-1.12964e-07 	-1.73041e-07 	0
0.060309 	-1.07839e-07 	-1.73863e-07 	0
0.0607558 	-1.02958e-07 	-1.74696e-07 	0
0.0612025 	-9.81933e-08 	-1.75566e-07 	0
0.0616492 	-9.39448e-08 	-1.76522e-07 	0
0.062096 	-8.96964e-08 	-1.77478e-07 	0
0.0625427 	-8.58201e-08 	-1.78552e-07 	0
0.0629894 	-8.21068e-08 	-1.79659e-07 	0
0.0634362 	-7.84868e-08 	-1.80812e-07 	0
0.0638829 	-7.52271e-08 	-1.82088e-07 	0
0.0643296 	-7.19673e-08 	-1.83364e-07 	0
0.0647764 	-6.89835e-08 	-1.84781e-07 	0
0.0652231 	-6.61092e-08 	-1.86239e-07 	0
0.0656698 	-6.33092e-08 	-1.87749e-07 	0
0.0661166 	-6.07636e-08 	-1.89398e-07 	0
0.0665633 	-5.82181e-08 	-1.91046e-07 	0
0.0670101 	-5.58795e-08 	-1.92849e-07 	0
0.0674568 	-5.36152e-08 	-1.94695e-07 	0
0.0679035 	-5.14101e-08 	-1.96599e-07 	0
0.0683503 	-4.93873e-08 	-1.98648e-07 	0
0.068797 	-4.73645e-08 	-2.00696e-07 	0
0.0692437 	-4.54983e-08 	-2.0291e-07 	0
0.0696905 	-4.36831e-08 	-2.05165e-07 	0
0.0701372 	-4.19149e-08 	-2.07486e-07 	0
0.0705839 	-4.02787e-08 	-2.09952e-07 	0
0.0710307 	-3.86424e-08 	-2.12419e-07 	0
0.0714774 	-3.71249e-08 	-2.15061e-07 	0
0.0719241 	-3.56429e-08 	-2.17743e-07 	0
0.0723709 	-3.41977e-08 	-2.20495e-07 	0
0.0728176 	-3.28485e-08 	-2.23395e-07 	0
0.0732643 	-3.14993e-08 	-2.26295e-07 	0
0.0737111 	-3.02396e-08 	-2.29381e-07 	0
0.0741578 	-2.90047e-08 	-2.32503e-07 	0
0.0746045 	-2.77978e-08 	-2.35704e-07 	1.91891e-29
0.0750513 	-2.66608e-08 	-2.39052e-07 	8.00896e-29
0.075498 	-2.55238e-08 	-2.424e-07 	1.4099e-28
0.0759447 	-2.44527e-08 	-2.45944e-07 	2.12216e-28
0.0763915 	-2.33991e-08 	-2.49521e-07 	2.75698e-28
0.0768382 	-2.2366e-08 	-2.53184e-07 	2.94497e-28
0.0772849 	-2.13829e-08 	-2.56993e-07 	2.33596e-28
0.0777317 	-2.03998e-08 	-2.60803e-07 	1.72696e-28
0.0781784 	-1.9463e-08 	-2.6482e-07 	1.00942e-28
0.0786251 	-1.85387e-08 	-2.68865e-07 	3.74602e-29
0.0790719 	-1.76279e-08 	-2.73005e-07 	0
0.0795186 	-1.67519e-08 	-2.77289e-07 	0
0.0799653 	-1.58758e-08 	-2.81574e-07 	0
0.0804121 	-1.50291e-08 	-2.86078e-07 	0
0.0808588 	-1.41915e-08 	-2.90605e-07 	0
0.0813055 	-1.33606e-08 	-2.95233e-07 	5.66102e-29
0.0817523 	-1.25524e-08 	-3.00006e-07 	2.01731e-28
0.082199 	-1.17442e-08 	-3.04778e-07 	3.46852e-28
0.0826457 	-1.09498e-08 	-3.0978e-07 	5.00769e-28
0.0830925 	-1.01624e-08 	-3.148e-07 	6.4834e-28
0.0835392 	-9.37502e-09 	-3.1993e-07 	6.05949e-28
0.0839859 	-8.60031e-09 	-3.252e-07 	3.11291e-28
0.0844327 	-7.8256e-09 	-3.3047e-07 	1.66332e-29
0.0848794 	-7.0499e-09 	-3.35981e-07 	-2.95245e-28
0.0853261 	-6.28003e-09 	-3.41503e-07 	-5.93831e-28
0.0857729 	-5.50325e-09 	-3.47143e-07 	-6.8195e-28
0.0862196 	-4.73057e-09 	-3.5292e-07 	-5.32413e-28
0.0866663 	-3.95789e-09 	-3.58697e-07 	-3.82876e-28
0.0871131 	-3.16947e-09 	-3.64715e-07 	-2.25025e-28
0.0875598 	-2.38643e-09 	-3.70739e-07 	-7.40106e-29
0.0880065 	-1.592e-09 	-3.04068e-07 	0
0.0884533 	-7.97485e-10 	-1.53778e-07 	0
0.0889 	0 	0 	0
