0 	0 	0 	0
0.000446734 	5.23959e-06 	0.000190716 	-8.31107e-27
0.000893467 	1.04792e-05 	0.000381432 	-1.66221e-26
0.0013402 	1.60019e-05 	0.00047042 	-1.85658e-26
0.00178693 	2.17939e-05 	0.000462641 	-1.44527e-26
0.00223367 	2.75522e-05 	0.000452462 	-1.03374e-26
0.0026804 	3.19972e-05 	0.000348662 	-6.13946e-27
0.00312714 	3.64422e-05 	0.000244862 	-1.94154e-27
0.00357387 	3.53727e-05 	0.000137221 	0
0.0040206 	2.95582e-05 	2.62768e-05 	0
0.00446734 	2.23436e-05 	-8.19193e-05 	0
0.00491407 	-1.14731e-05 	-0.000137894 	0
0.0053608 	-4.52898e-05 	-0.000193869 	0
0.00580754 	-0.000104169 	-0.000205023 	0
0.00625427 	-0.000182541 	-0.000181317 	0
0.00670101 	-0.000264982 	-0.000152209 	-5.28506e-28
0.00714774 	-0.000397606 	-5.6473e-05 	-7.57525e-27
0.00759447 	-0.000530229 	3.92629e-05 	-1.4622e-26
0.00804121 	-0.000697928 	0.000165515 	-2.12445e-26
0.00848794 	-0.000890254 	0.000313193 	-2.75691e-26
0.00893467 	-0.001089 	0.000464412 	-3.25566e-26
0.00938141 	-0.00134557 	0.000647499 	-2.55099e-26
0.00982814 	-0.00160214 	0.000830586 	-1.84631e-26
0.0102749 	-0.00189986 	0.00102938 	-1.18587e-26
0.0107216 	-0.00222362 	0.00123811 	-5.53404e-27
0.0111683 	-0.00255552 	0.00144911 	-1.79838e-28
0.0116151 	-0.00294447 	0.00167594 	-1.61854e-27
0.0120618 	-0.00333342 	0.00190277 	-3.05724e-27
0.0125085 	-0.0037577 	0.00213474 	-3.98673e-27
0.0129553 	-0.00420207 	0.00236961 	-4.62666e-27
0.013402 	-0.00465212 	0.00260362 	-4.9548e-27
0.0138487 	-0.0051343 	0.0028327 	-3.5161e-27
0.0142955 	-0.00561648 	0.00306178 	-2.0774e-27
0.0147422 	-0.00610869 	0.00327667 	-1.16788e-27
0.0151889 	-0.006606 	0.00348432 	-5.27945e-28
0.0156357 	-0.00710188 	0.00368573 	0
0.0160824 	-0.00759095 	0.00385774 	0
0.0165291 	-0.00808002 	0.00402975 	0
0.0169759 	-0.00854964 	0.00417033 	0
0.0174226 	-0.00901043 	0.00429661 	0
0.0178693 	-0.00946274 	0.00441281 	0
0.0183161 	-0.00988117 	0.00448867 	0
0.0187628 	-0.0102996 	0.00456454 	0
0.0192095 	-0.0106827 	0.00460483 	0
0.0196563 	-0.0110514 	0.00463078 	0
0.020103 	-0.0114087 	0.00464648 	0
0.0205497 	-0.0117265 	0.00462693 	0
0.0209965 	-0.0120442 	0.00460738 	0
0.0214432 	-0.0123264 	0.00455918 	0
0.0218899 	-0.0125959 	0.00450078 	0
0.0223367 	-0.0128547 	0.00443449 	1.1322e-27
0.0227834 	-0.013081 	0.00434453 	5.66098e-27
0.0232302 	-0.0133073 	0.00425458 	1.01898e-26
0.0236769 	-0.0135049 	0.00414573 	1.49755e-26
0.0241236 	-0.0136935 	0.00403099 	1.98412e-26
0.0245704 	-0.0138731 	0.00391099 	2.21235e-26
0.0250171 	-0.014029 	0.00377714 	1.75947e-26
0.0254638 	-0.014185 	0.00364328 	1.30659e-26
0.0259106 	-0.0143183 	0.00349783 	1.67322e-26
0.0263573 	-0.0144455 	0.00334925 	2.26099e-26
0.026804 	-0.014565 	0.00319722 	3.00674e-26
0.0272508 	-0.0146666 	0.00303716 	4.12115e-26
0.0276975 	-0.0147682 	0.0028771 	5.23555e-26
0.0281442 	-0.0148507 	0.00270962 	4.5716e-26
0.028591 	-0.0149288 	0.00254042 	3.49726e-26
0.0290377 	-0.0149998 	0.0023688 	2.4099e-26
0.0294844 	-0.0150561 	0.00219215 	1.2955e-26
0.0299312 	-0.0151124 	0.0020155 	1.81091e-27
0.0303779 	-0.0151515 	0.00183361 	0
0.0308246 	-0.0151872 	0.0016507 	0
0.0312714 	-0.0152161 	0.0014659 	0
0.0317181 	-0.0152323 	0.0012776 	0
0.0321648 	-0.0152485 	0.0010893 	0
0.0326116 	-0.0152485 	0.00089688 	2.36944e-26
0.0330583 	-0.0152459 	0.000703809 	5.11662e-26
0.033505 	-0.0152364 	0.000509135 	7.89109e-26
0.0339518 	-0.0152154 	0.000311787 	1.07111e-25
0.0343985 	-0.0151945 	0.00011444 	1.35311e-25
0.0348452 	-0.0151574 	-8.63251e-05 	1.14102e-25
0.035292 	-0.0151183 	-0.000287523 	8.66301e-26
0.0357387 	-0.0150719 	-0.000490077 	5.88671e-26
0.0361854 	-0.0150146 	-0.000694665 	3.06673e-26
0.0366322 	-0.0149573 	-0.000899253 	2.46748e-27
0.0370789 	-0.0148829 	-0.00110634 	-6.35284e-27
0.0375256 	-0.0148069 	-0.00131367 	-1.33148e-26
0.0379724 	-0.0147226 	-0.00152174 	-2.03033e-26
0.0384191 	-0.0146272 	-0.00173081 	-2.73275e-26
0.0388658 	-0.0145317 	-0.00193987 	-3.43517e-26
0.0393126 	-0.0144168 	-0.00214914 	-2.82638e-26
0.0397593 	-0.0143007 	-0.00235842 	-2.13018e-26
0.040206 	-0.0141745 	-0.00256678 	-1.43118e-26
0.0406528 	-0.014036 	-0.00277402 	-7.2876e-27
0.0410995 	-0.0138976 	-0.00298126 	-2.63407e-28
0.0415462 	-0.0137357 	-0.00318347 	0
0.041993 	-0.0135728 	-0.00338549 	0
0.0424397 	-0.0133971 	-0.00358293 	0
0.0428864 	-0.0132072 	-0.00377531 	0
0.0433332 	-0.0130173 	-0.00396769 	0
0.0437799 	-0.0127974 	-0.00414474 	-6.28125e-27
0.0442266 	-0.0125771 	-0.00432161 	-1.2642e-26
0.0446734 	-0.0123397 	-0.00448692 	-1.87706e-26
0.0451201 	-0.0120852 	-0.00464068 	-2.46669e-26
0.0455668 	-0.0118303 	-0.00479403 	-3.041e-26
0.0460136 	-0.0115375 	-0.00491531 	-2.40493e-26
0.0464603 	-0.0112446 	-0.00503658 	-1.76885e-26
0.046907 	-0.0109295 	-0.00513505 	-1.15716e-26
0.0473538 	-0.0105944 	-0.00521287 	-5.67523e-27
0.0478005 	-0.0102575 	-0.00528862 	1.40881e-28
0.0482472 	-0.00987716 	-0.00531115 	3.8977e-27
0.048694 	-0.00949684 	-0.00533369 	7.65452e-27
0.0491407 	-0.00909168 	-0.00531964 	1.09397e-26
0.0495874 	-0.00866619 	-0.00527566 	1.38391e-26
0.0500342 	-0.00823817 	-0.00522701 	1.63224e-26
0.0504809 	-0.00777221 	-0.0051083 	1.25656e-26
0.0509276 	-0.00730625 	-0.00498958 	8.80875e-27
0.0513744 	-0.00682361 	-0.00482669 	7.5541e-27
0.0518211 	-0.00632864 	-0.00463115 	8.14887e-27
0.0522678 	-0.00583283 	-0.00442953 	8.87635e-27
0.0527146 	-0.00532833 	-0.00416448 	1.09879e-26
0.0531613 	-0.00482382 	-0.00389943 	1.30994e-26
0.053608 	-0.00432967 	-0.00360397 	1.18475e-26
0.0540548 	-0.00384244 	-0.00328821 	8.35341e-27
0.0545015 	-0.00336059 	-0.00297008 	5.01485e-27
0.0549482 	-0.00292118 	-0.0026331 	2.90333e-27
0.055395 	-0.00248176 	-0.00229612 	7.91818e-28
0.0558417 	-0.00208952 	-0.00196786 	0
0.0562884 	-0.00172557 	-0.00164482 	0
0.0567352 	-0.00137434 	-0.00132816 	0
0.0571819 	-0.00110282 	-0.00105146 	0
0.0576286 	-0.00083131 	-0.00077477 	0
0.0580754 	-0.000620703 	-0.000542185 	0
0.0585221 	-0.000442892 	-0.000333351 	0
0.0589688 	-0.000278189 	-0.000136839 	-5.11194e-29
0.0594156 	-0.00018104 	-3.83262e-06 	-3.657e-28
0.0598623 	-8.38908e-05 	0.000129174 	-6.80281e-28
0.060309 	-2.73857e-05 	0.000211826 	-1.05e-27
0.0607558 	9.54989e-06 	0.000270234 	-1.44627e-27
0.0612025 	3.91238e-05 	0.000315413 	-1.70926e-27
0.0616492 	3.67972e-05 	0.000303271 	-1.39468e-27
0.062096 	3.44706e-05 	0.000291128 	-1.0801e-27
0.0625427 	2.59293e-05 	0.000239547 	-7.08333e-28
0.0629894 	1.47246e-05 	0.000171063 	-3.12063e-28
0.0634362 	5.35466e-06 	0.000107315 	0
0.0638829 	2.7842e-06 	6.11201e-05 	0
0.0643296 	2.13742e-07 	1.49252e-05 	0
0.0647764 	-4.05816e-07 	1.56827e-06 	0
0.0652231 	-2.85376e-07 	6.67108e-07 	0
0.0656698 	-1.99767e-07 	-2.01307e-08 	-6.74244e-31
0.0661166 	-2.25982e-07 	-2.05457e-08 	-3.51317e-30
0.0665633 	-2.52196e-07 	-2.09606e-08 	-6.35209e-30
0.0670101 	-2.5914e-07 	-2.16768e-08 	-9.97826e-30
0.0674568 	-2.59659e-07 	-2.24933e-08 	-1.38669e-29
0.0679035 	-2.60035e-07 	-2.34401e-08 	-1.59895e-29
0.0683503 	-2.60008e-07 	-2.47524e-08 	-1.31505e-29
0.068797 	-2.5998e-07 	-2.60648e-08 	-1.03116e-29
0.0692437 	-2.59498e-07 	-2.7754e-08 	-6.65921e-30
0.0696905 	-2.58883e-07 	-2.95526e-08 	-2.77062e-30
0.0701372 	-2.58095e-07 	-3.14783e-08 	0
0.0705839 	-2.56877e-07 	-3.37192e-08 	0
0.0710307 	-2.55658e-07 	-3.59601e-08 	0
0.0714774 	-2.53951e-07 	-3.85109e-08 	-6.08615e-30
0.0719241 	-2.52121e-07 	-4.1139e-08 	-1.36938e-29
0.0723709 	-2.50098e-07 	-4.3872e-08 	-2.15628e-29
0.0728176 	-2.47653e-07 	-4.68356e-08 	-3.00067e-29
0.0732643 	-2.45208e-07 	-4.97993e-08 	-3.84505e-29
0.0737111 	-2.42253e-07 	-5.30056e-08 	-3.36519e-29
0.0741578 	-2.3919e-07 	-5.62635e-08 	-2.60442e-29
0.0746045 	-2.35917e-07 	-5.96112e-08 	-1.81543e-29
0.0750513 	-2.32234e-07 	-6.31355e-08 	-9.71043e-30
0.075498 	-2.28551e-07 	-6.66597e-08 	-1.26658e-30
0.0759447 	-2.24337e-07 	-7.03986e-08 	0
0.0763915 	-2.2003e-07 	-7.41753e-08 	0
0.0768382 	-2.15495e-07 	-7.80436e-08 	0
0.0772849 	-2.1056e-07 	-8.20728e-08 	0
0.0777317 	-2.05626e-07 	-8.61021e-08 	0
0.0781784 	-2.00137e-07 	-9.0364e-08 	0
0.0786251 	-1.9457e-07 	-9.46593e-08 	0
0.0790719 	-1.88755e-07 	-9.9068e-08 	0
0.0795186 	-1.82551e-07 	-1.03656e-07 	0
0.0799653 	-1.76346e-07 	-1.08245e-07 	0
0.0804121 	-1.69565e-07 	-1.13134e-07 	0
0.0808588 	-1.6272e-07 	-1.18056e-07 	0
0.0813055 	-1.55612e-07 	-1.2314e-07 	0
0.0817523 	-1.48128e-07 	-1.28453e-07 	0
0.082199 	-1.40644e-07 	-1.33766e-07 	0
0.0826457 	-1.32578e-07 	-1.39507e-07 	0
0.0830925 	-1.24465e-07 	-1.45283e-07 	0
0.0835392 	-1.16087e-07 	-1.513e-07 	0
0.0839859 	-1.07369e-07 	-1.57626e-07 	0
0.0844327 	-9.86498e-08 	-1.63953e-07 	0
0.0848794 	-8.93995e-08 	-1.70901e-07 	0
0.0853261 	-8.01211e-08 	-1.77882e-07 	0
0.0857729 	-7.06201e-08 	-1.85217e-07 	0
0.0862196 	-6.08603e-08 	-1.92964e-07 	0
0.0866663 	-5.11005e-08 	-2.00711e-07 	0
0.0871131 	-4.09866e-08 	-2.09304e-07 	0
0.0875598 	-3.08636e-08 	-2.17919e-07 	0
0.0880065 	-2.06436e-08 	-1.78761e-07 	0
0.0884533 	-1.03218e-08 	-8.93805e-08 	0
0.0889 	-3.23767e-22 	-3.29028e-21 	0
