0 	0 	0 	0
0.000446734 	-7.25348e-06 	-0.000185659 	0
0.000893467 	0.000129847 	0.000100971 	2.10043e-26
0.0013402 	0.000319535 	0.000507993 	1.21634e-26
0.00178693 	0.000898795 	0.00145333 	1.38029e-25
0.00223367 	0.00156782 	0.00241034 	3.4255e-25
0.0026804 	0.00248597 	0.00351891 	4.80647e-25
0.00312714 	0.00350554 	0.00460912 	4.62919e-25
0.00357387 	0.00455238 	0.00549029 	4.07148e-25
0.0040206 	0.0055851 	0.00626219 	-1.13271e-26
0.00446734 	0.00663532 	0.00678429 	-4.96058e-25
0.00491407 	0.0074952 	0.00704299 	-8.09401e-25
0.0053608 	0.00842285 	0.00718176 	-1.32293e-24
0.00580754 	0.00906102 	0.00695821 	-1.20293e-24
0.00625427 	0.0097229 	0.00668117 	-4.70001e-25
0.00670101 	0.0101764 	0.00610505 	-1.80953e-26
0.00714774 	0.0104601 	0.00543625 	3.6896e-25
0.00759447 	0.0107608 	0.00464548 	7.53667e-25
0.00804121 	0.010741 	0.00372958 	2.64408e-25
0.00848794 	0.0109057 	0.0028078 	5.12765e-26
0.00893467 	0.0106908 	0.00176843 	8.64856e-26
0.00938141 	0.0106543 	0.000777512 	7.57489e-25
0.00982814 	0.010318 	-0.000290778 	7.4912e-25
0.0102749 	0.0100306 	-0.00127559 	1.47691e-24
0.0107216 	0.00960013 	-0.00229117 	1.63201e-24
0.0111683 	0.00902583 	-0.00317516 	8.27685e-25
0.0116151 	0.00850627 	-0.00402833 	7.84299e-25
0.0120618 	0.00775547 	-0.00474312 	2.03405e-25
0.0125085 	0.00714466 	-0.00536839 	5.58888e-26
0.0129553 	0.00630976 	-0.0058642 	-7.78353e-26
0.013402 	0.00559787 	-0.00623497 	0
0.0138487 	0.00475881 	-0.00652111 	-3.63429e-26
0.0142955 	0.0039704 	-0.00670491 	0
0.0147422 	0.00322135 	-0.00682572 	-3.82289e-27
0.0151889 	0.00257041 	-0.00693313 	-1.19935e-26
0.0156357 	0.00185823 	-0.00680015 	0
0.0160824 	0.00104053 	-0.00647221 	0
0.0165291 	0.000406846 	-0.00541349 	0
0.0169759 	0.000143615 	-0.00322847 	0
0.0174226 	4.12452e-05 	-0.000979628 	2.06347e-28
0.0178693 	-3.40359e-06 	-4.81429e-05 	1.01366e-27
0.0183161 	-1.23224e-06 	-2.28886e-05 	2.32017e-27
0.0187628 	1.95941e-07 	-8.21189e-07 	2.76525e-27
0.0192095 	2.34181e-07 	-7.59372e-07 	2.53713e-27
0.0196563 	2.37022e-07 	-7.02101e-07 	1.97715e-27
0.020103 	1.78771e-07 	-6.56855e-07 	1.04387e-27
0.0205497 	1.3994e-07 	-6.19187e-07 	2.04079e-28
0.0209965 	9.81494e-08 	-5.82243e-07 	1.20576e-28
0.0214432 	7.13358e-08 	-5.53813e-07 	0
0.0218899 	4.48762e-08 	-5.23651e-07 	0
0.0223367 	2.38724e-08 	-4.99984e-07 	0
0.0227834 	6.65322e-09 	-4.74828e-07 	0
0.0232302 	-9.3425e-09 	-4.54481e-07 	0
0.0236769 	-2.09566e-08 	-4.33857e-07 	0
0.0241236 	-3.28645e-08 	-4.1588e-07 	0
0.0245704 	-4.11143e-08 	-3.99179e-07 	0
0.0250171 	-4.97466e-08 	-3.83058e-07 	0
0.0254638 	-5.57014e-08 	-3.69271e-07 	0
0.0259106 	-6.1528e-08 	-3.55296e-07 	0
0.0263573 	-6.62738e-08 	-3.43346e-07 	0
0.026804 	-7.00975e-08 	-3.31276e-07 	0
0.0272508 	-7.3853e-08 	-3.20703e-07 	0
0.0276975 	-7.6361e-08 	-3.10303e-07 	0
0.0281442 	-7.91976e-08 	-3.00815e-07 	-3.44208e-29
0.028591 	-8.09846e-08 	-2.91939e-07 	0
0.0290377 	-8.29622e-08 	-2.83318e-07 	-1.1566e-28
0.0294844 	-8.42151e-08 	-2.75652e-07 	0
0.0299312 	-8.54418e-08 	-2.67962e-07 	-4.91595e-29
0.0303779 	-8.63744e-08 	-2.61132e-07 	0
0.0308246 	-8.70044e-08 	-2.5431e-07 	-2.28e-29
0.0312714 	-8.76881e-08 	-2.48111e-07 	-3.70837e-30
0.0317181 	-8.78902e-08 	-2.42035e-07 	-1.60929e-30
0.0321648 	-8.82992e-08 	-2.36355e-07 	-2.4899e-29
0.0326116 	-8.8301e-08 	-2.30969e-07 	0
0.0330583 	-8.84169e-08 	-2.25719e-07 	4.17063e-29
0.033505 	-8.82651e-08 	-2.20905e-07 	0
0.0339518 	-8.81206e-08 	-2.16092e-07 	4.35153e-29
0.0343985 	-8.78664e-08 	-2.11706e-07 	0
0.0348452 	-8.74986e-08 	-2.07329e-07 	0
0.035292 	-8.71764e-08 	-2.03259e-07 	0
0.0357387 	-8.66378e-08 	-1.99259e-07 	0
0.0361854 	-8.62165e-08 	-1.95456e-07 	0
0.0366322 	-8.56095e-08 	-1.91805e-07 	0
0.0370789 	-8.50768e-08 	-1.88233e-07 	0
0.0375256 	-8.44246e-08 	-1.84881e-07 	0
0.0379724 	-8.37881e-08 	-1.81533e-07 	0
0.0384191 	-8.31045e-08 	-1.78422e-07 	0
0.0388658 	-8.23752e-08 	-1.75314e-07 	0
0.0393126 	-8.1676e-08 	-1.72375e-07 	0
0.0397593 	-8.08757e-08 	-1.69479e-07 	-6.64279e-30
0.040206 	-8.01449e-08 	-1.66692e-07 	-1.13151e-29
0.0406528 	-7.93188e-08 	-1.6399e-07 	0
0.0410995 	-7.85461e-08 	-1.61338e-07 	-5.04285e-29
0.0415462 	-7.77142e-08 	-1.58808e-07 	0
0.041993 	-7.68987e-08 	-1.56282e-07 	-1.27616e-30
0.0424397 	-7.60647e-08 	-1.53901e-07 	0
0.0428864 	-7.52117e-08 	-1.51521e-07 	4.35159e-29
0.0433332 	-7.43822e-08 	-1.49244e-07 	-4.9196e-30
0.0437799 	-7.35018e-08 	-1.46995e-07 	-4.73624e-29
0.0442266 	-7.26687e-08 	-1.44811e-07 	-4.74096e-29
0.0446734 	-7.17817e-08 	-1.42683e-07 	-9.00838e-29
0.0451201 	-7.0937e-08 	-1.40586e-07 	-1.32191e-28
0.0455668 	-7.00607e-08 	-1.38567e-07 	-6.25671e-29
0.0460136 	-6.91998e-08 	-1.36551e-07 	-7.66914e-29
0.0464603 	-6.83355e-08 	-1.3463e-07 	-2.74969e-29
0.046907 	-6.74631e-08 	-1.32709e-07 	0
0.0473538 	-6.66117e-08 	-1.30858e-07 	0
0.0478005 	-6.57325e-08 	-1.29028e-07 	0
0.0482472 	-6.489e-08 	-1.27241e-07 	0
0.048694 	-6.40135e-08 	-1.25493e-07 	0
0.0491407 	-6.31735e-08 	-1.23767e-07 	0
0.0495874 	-6.23149e-08 	-1.22095e-07 	0
0.0500342 	-6.14714e-08 	-1.20427e-07 	0
0.0504809 	-6.06311e-08 	-1.18825e-07 	0
0.0509276 	-5.97879e-08 	-1.17223e-07 	0
0.0513744 	-5.89645e-08 	-1.15675e-07 	0
0.0518211 	-5.81247e-08 	-1.14141e-07 	0
0.0522678 	-5.73157e-08 	-1.12639e-07 	0
0.0527146 	-5.64829e-08 	-1.11168e-07 	0
0.0531613 	-5.56829e-08 	-1.09711e-07 	0
0.053608 	-5.48704e-08 	-1.08297e-07 	0
0.0540548 	-5.40732e-08 	-1.06886e-07 	0
0.0545015 	-5.32811e-08 	-1.05525e-07 	0
0.0549482 	-5.24893e-08 	-1.04163e-07 	0
0.055395 	-5.1716e-08 	-1.02847e-07 	0
0.0558417 	-5.09323e-08 	-1.01539e-07 	0
0.0562884 	-5.01756e-08 	-1.00258e-07 	0
0.0567352 	-4.94011e-08 	-9.90016e-08 	0
0.0571819 	-4.86552e-08 	-9.77574e-08 	0
0.0576286 	-4.79002e-08 	-9.65466e-08 	0
0.0580754 	-4.71611e-08 	-9.53391e-08 	0
0.0585221 	-4.64267e-08 	-9.41716e-08 	0
0.0589688 	-4.56945e-08 	-9.30032e-08 	0
0.0594156 	-4.49793e-08 	-9.18739e-08 	0
0.0598623 	-4.42571e-08 	-9.07503e-08 	0
0.060309 	-4.35581e-08 	-8.96509e-08 	0
0.0607558 	-4.28462e-08 	-8.85703e-08 	0
0.0612025 	-4.21592e-08 	-8.75012e-08 	0
0.0616492 	-4.14644e-08 	-8.64597e-08 	0
0.062096 	-4.07859e-08 	-8.54215e-08 	0
0.0625427 	-4.01106e-08 	-8.44166e-08 	0
0.0629894 	-3.94391e-08 	-8.34102e-08 	0
0.0634362 	-3.87825e-08 	-8.24396e-08 	0
0.0638829 	-3.81212e-08 	-8.14718e-08 	0
0.0643296 	-3.74798e-08 	-8.05267e-08 	0
0.0647764 	-3.68287e-08 	-7.95963e-08 	0
0.0652231 	-3.61996e-08 	-7.86772e-08 	0
0.0656698 	-3.55629e-08 	-7.77813e-08 	0
0.0661166 	-3.49428e-08 	-7.68888e-08 	0
0.0665633 	-3.4324e-08 	-7.60247e-08 	0
0.0670101 	-3.37104e-08 	-7.51593e-08 	0
0.0674568 	-3.31091e-08 	-7.43261e-08 	0
0.0679035 	-3.25047e-08 	-7.34941e-08 	0
0.0683503 	-3.19176e-08 	-7.2684e-08 	0
0.068797 	-3.13227e-08 	-7.18851e-08 	0
0.0692437 	-3.07474e-08 	-7.10977e-08 	0
0.0696905 	-3.01641e-08 	-7.03299e-08 	0
0.0701372 	-2.95977e-08 	-6.9566e-08 	0
0.0705839 	-2.90306e-08 	-6.88265e-08 	0
0.0710307 	-2.847e-08 	-6.80867e-08 	0
0.0714774 	-2.79186e-08 	-6.73749e-08 	0
0.0719241 	-2.73658e-08 	-6.66636e-08 	0
0.0723709 	-2.68275e-08 	-6.59739e-08 	0
0.0728176 	-2.6283e-08 	-6.52923e-08 	0
0.0732643 	-2.57559e-08 	-6.46228e-08 	0
0.0737111 	-2.52204e-08 	-6.39698e-08 	0
0.0741578 	-2.47016e-08 	-6.33211e-08 	0
0.0746045 	-2.41803e-08 	-6.26938e-08 	0
0.0750513 	-2.36666e-08 	-6.20669e-08 	0
0.075498 	-2.31591e-08 	-6.14647e-08 	0
0.0759447 	-2.26514e-08 	-6.08624e-08 	0
0.0763915 	-2.21559e-08 	-6.02816e-08 	0
0.0768382 	-2.16553e-08 	-5.97064e-08 	0
0.0772849 	-2.117e-08 	-5.91438e-08 	0
0.0777317 	-2.06763e-08 	-5.85948e-08 	0
0.0781784 	-2.01982e-08 	-5.80513e-08 	0
0.0786251 	-1.97162e-08 	-5.75261e-08 	0
0.0790719 	-1.92427e-08 	-5.70022e-08 	0
0.0795186 	-1.87726e-08 	-5.65002e-08 	0
0.0799653 	-1.83035e-08 	-5.59978e-08 	0
0.0804121 	-1.78441e-08 	-5.55167e-08 	0
0.0808588 	-1.73807e-08 	-5.50391e-08 	0
0.0813055 	-1.69302e-08 	-5.45749e-08 	0
0.0817523 	-1.6472e-08 	-5.41215e-08 	0
0.082199 	-1.60278e-08 	-5.36748e-08 	0
0.0826457 	-1.55786e-08 	-5.32438e-08 	0
0.0830925 	-1.51384e-08 	-5.28151e-08 	-8.58757e-30
0.0835392 	-1.46991e-08 	-5.24058e-08 	0
0.0839859 	-1.42619e-08 	-5.19959e-08 	-2.38142e-29
0.0844327 	-1.38319e-08 	-5.16073e-08 	0
0.0848794 	-1.33988e-08 	-5.12204e-08 	-1.01237e-31
0.0853261 	-1.29763e-08 	-5.08477e-08 	0
0.0857729 	-1.25469e-08 	-5.04833e-08 	5.2752e-30
0.0862196 	-1.21299e-08 	-5.0127e-08 	5.90772e-30
0.0866663 	-1.17067e-08 	-4.9784e-08 	0
0.0871131 	-1.1293e-08 	-4.94443e-08 	7.37456e-30
0.0875598 	-1.08779e-08 	-4.91219e-08 	0
0.0880065 	-1.04659e-08 	-4.87991e-08 	0
0.0884533 	-1.00584e-08 	-4.84971e-08 	0
0.0889 	-9.64886e-09 	-4.81956e-08 	-7.65037e-30
