0 	0 	0 	0
0.000446734 	5.11785e-06 	0.000201947 	-8.24935e-27
0.000893467 	1.02357e-05 	0.000403894 	-1.64987e-26
0.0013402 	1.56929e-05 	0.000503699 	-1.84293e-26
0.00178693 	2.14729e-05 	0.000506343 	-1.43493e-26
0.00223367 	2.72979e-05 	0.000506374 	-1.02671e-26
0.0026804 	3.48747e-05 	0.000404505 	-6.09769e-27
0.00312714 	4.24515e-05 	0.000302637 	-1.92833e-27
0.00357387 	4.9067e-05 	0.000188514 	0
0.0040206 	5.48551e-05 	6.38469e-05 	0
0.00446734 	5.98771e-05 	-5.89126e-05 	0
0.00491407 	5.03421e-05 	-0.000145425 	0
0.0053608 	4.08071e-05 	-0.000231937 	0
0.00580754 	1.35044e-05 	-0.000279027 	0
0.00625427 	-2.76178e-05 	-0.000295453 	0
0.00670101 	-7.19809e-05 	-0.000306532 	-5.47972e-28
0.00714774 	-0.000156315 	-0.000251659 	-7.85427e-27
0.00759447 	-0.000240649 	-0.000196787 	-1.51606e-26
0.00804121 	-0.000354147 	-0.000109869 	-2.21329e-26
0.00848794 	-0.000488121 	-4.50444e-07 	-2.88708e-26
0.00893467 	-0.000627541 	0.000112646 	-3.42043e-26
0.00938141 	-0.000815977 	0.000258845 	-2.6898e-26
0.00982814 	-0.00100441 	0.000405044 	-1.95917e-26
0.0102749 	-0.00122927 	0.00056721 	-1.26336e-26
0.0107216 	-0.00147717 	0.000739476 	-5.89566e-27
0.0111683 	-0.00173293 	0.000914362 	-2.54955e-28
0.0116151 	-0.00204378 	0.00110759 	-2.2946e-27
0.0120618 	-0.00235463 	0.00130081 	-4.33424e-27
0.0125085 	-0.00270479 	0.00150444 	-5.96155e-27
0.0129553 	-0.00307729 	0.00171399 	-7.35441e-27
0.013402 	-0.00345776 	0.00192479 	-8.23239e-27
0.0138487 	-0.00388335 	0.0021427 	-6.19274e-27
0.0142955 	-0.00430893 	0.00236061 	-4.1531e-27
0.0147422 	-0.00475913 	0.00257616 	-2.54196e-27
0.0151889 	-0.00522186 	0.0027905 	-1.1491e-27
0.0156357 	-0.00568744 	0.00300177 	0
0.0160824 	-0.00616644 	0.00319856 	0
0.0165291 	-0.00664543 	0.00339536 	0
0.0169759 	-0.00712042 	0.00357105 	0
0.0174226 	-0.00759359 	0.00373716 	0
0.0178693 	-0.00806167 	0.00389515 	0
0.0183161 	-0.00850941 	0.00402073 	0
0.0187628 	-0.00895716 	0.0041463 	0
0.0192095 	-0.0093765 	0.00423929 	0
0.0196563 	-0.00978438 	0.00431914 	0
0.020103 	-0.0101814 	0.00438859 	0
0.0205497 	-0.0105412 	0.00442225 	0
0.0209965 	-0.010901 	0.00445592 	0
0.0214432 	-0.0112236 	0.00445801 	0
0.0218899 	-0.0115329 	0.00444888 	0
0.0223367 	-0.0118301 	0.00443049 	9.32698e-28
0.0227834 	-0.012091 	0.00438437 	4.66349e-27
0.0232302 	-0.012352 	0.00433825 	8.39428e-27
0.0236769 	-0.0125797 	0.00426913 	1.24096e-26
0.0241236 	-0.012797 	0.00419283 	1.65136e-26
0.0245704 	-0.013004 	0.00411007 	1.8463e-26
0.0250171 	-0.0131836 	0.00401023 	1.47322e-26
0.0254638 	-0.0133632 	0.0039104 	1.10014e-26
0.0259106 	-0.0135175 	0.00379655 	1.4259e-26
0.0263573 	-0.0136649 	0.00367891 	1.94024e-26
0.026804 	-0.0138041 	0.00355729 	2.58841e-26
0.0272508 	-0.0139241 	0.0034264 	3.54886e-26
0.0276975 	-0.0140442 	0.0032955 	4.50932e-26
0.0281442 	-0.0141448 	0.00315655 	3.93806e-26
0.028591 	-0.0142411 	0.00301575 	3.01333e-26
0.0290377 	-0.0143304 	0.00287249 	2.07698e-26
0.0294844 	-0.0144055 	0.00272415 	1.11653e-26
0.0299312 	-0.0144805 	0.0025758 	1.56074e-27
0.0303779 	-0.0145394 	0.00242247 	0
0.0308246 	-0.0145951 	0.00226817 	0
0.0312714 	-0.0146445 	0.00211215 	0
0.0317181 	-0.0146822 	0.00195295 	0
0.0321648 	-0.0147198 	0.00179374 	0
0.0326116 	-0.0147428 	0.00163087 	1.98206e-26
0.0330583 	-0.0147634 	0.00146742 	4.28011e-26
0.033505 	-0.0147778 	0.00130252 	6.60129e-26
0.0339518 	-0.014782 	0.00113521 	8.96104e-26
0.0343985 	-0.0147862 	0.000967905 	1.13208e-25
0.0348452 	-0.0147762 	0.000797371 	9.54674e-26
0.035292 	-0.0147644 	0.000626429 	7.24869e-26
0.0357387 	-0.0147463 	0.000454081 	4.92597e-26
0.0361854 	-0.0147188 	0.000279628 	2.56622e-26
0.0366322 	-0.0146913 	0.000105174 	2.06478e-27
0.0370789 	-0.0146495 	-7.24062e-05 	-5.51799e-27
0.0375256 	-0.0146063 	-0.000250286 	-1.15651e-26
0.0379724 	-0.0145564 	-0.000429572 	-1.76585e-26
0.0384191 	-0.0144974 	-0.000610759 	-2.38146e-26
0.0388658 	-0.0144384 	-0.000791947 	-2.99706e-26
0.0393126 	-0.0143641 	-0.000975974 	-2.46862e-26
0.0397593 	-0.0142888 	-0.00116019 	-1.86391e-26
0.040206 	-0.0142058 	-0.00134552 	-1.2543e-26
0.0406528 	-0.0141135 	-0.0015322 	-6.38692e-27
0.0410995 	-0.0140212 	-0.00171888 	-2.30852e-28
0.0415462 	-0.0139116 	-0.00190701 	0
0.041993 	-0.0138014 	-0.00209519 	0
0.0424397 	-0.013682 	-0.00228336 	0
0.0428864 	-0.0135526 	-0.00247152 	0
0.0433332 	-0.0134231 	-0.00265968 	0
0.0437799 	-0.0132731 	-0.0028456 	-6.3835e-27
0.0442266 	-0.0131229 	-0.0030315 	-1.28478e-26
0.0446734 	-0.0129613 	-0.00321468 	-1.92637e-26
0.0451201 	-0.0127884 	-0.00339514 	-2.56311e-26
0.0455668 	-0.0126151 	-0.00357548 	-3.18382e-26
0.0460136 	-0.0124171 	-0.00374617 	-2.53739e-26
0.0464603 	-0.012219 	-0.00391687 	-1.89096e-26
0.046907 	-0.0120063 	-0.00407943 	-1.24961e-26
0.0473538 	-0.0117804 	-0.00423464 	-6.12868e-27
0.0478005 	-0.0115532 	-0.004389 	2.03438e-28
0.0482472 	-0.011296 	-0.00452142 	5.62846e-27
0.048694 	-0.0110389 	-0.00465385 	1.10535e-26
0.0491407 	-0.0107627 	-0.00476882 	1.61677e-26
0.0495874 	-0.0104709 	-0.00486953 	2.10276e-26
0.0500342 	-0.0101767 	-0.00496761 	2.52448e-26
0.0504809 	-0.00984725 	-0.00502626 	1.98197e-26
0.0509276 	-0.00951777 	-0.00508491 	1.43947e-26
0.0513744 	-0.00916556 	-0.00511306 	1.38054e-26
0.0518211 	-0.00879655 	-0.00511868 	1.67903e-26
0.0522678 	-0.00842417 	-0.00511876 	2.00575e-26
0.0527146 	-0.00801659 	-0.00506118 	2.62675e-26
0.0531613 	-0.007609 	-0.0050036 	3.24776e-26
0.053608 	-0.00718155 	-0.00490392 	3.02547e-26
0.0540548 	-0.00674087 	-0.00477618 	2.24099e-26
0.0545015 	-0.00629778 	-0.00464046 	1.47489e-26
0.0549482 	-0.00583579 	-0.00444179 	8.53885e-27
0.055395 	-0.00537381 	-0.00424312 	2.32878e-27
0.0558417 	-0.00491036 	-0.0040054 	0
0.0562884 	-0.00444604 	-0.00374424 	0
0.0567352 	-0.00398485 	-0.00347714 	0
0.0571819 	-0.00354326 	-0.00317275 	0
0.0576286 	-0.00310167 	-0.00286836 	0
0.0580754 	-0.00269258 	-0.00255452 	0
0.0585221 	-0.00230099 	-0.00223558 	0
0.0589688 	-0.00192129 	-0.00191961 	-2.20876e-29
0.0594156 	-0.00160285 	-0.00161891 	-1.58011e-28
0.0598623 	-0.00128441 	-0.00131822 	-2.93935e-28
0.060309 	-0.00102367 	-0.00104932 	-4.49161e-28
0.0607558 	-0.000790705 	-0.000795727 	-6.13682e-28
0.0612025 	-0.000573433 	-0.000554369 	-7.21869e-28
0.0616492 	-0.000424147 	-0.000366023 	-5.85945e-28
0.062096 	-0.000274861 	-0.000177677 	-4.50021e-28
0.0625427 	-0.000174672 	-3.92466e-05 	-2.9408e-28
0.0629894 	-9.55238e-05 	7.77908e-05 	-1.2956e-28
0.0634362 	-2.72396e-05 	0.000180031 	0
0.0638829 	7.83865e-07 	0.000227434 	0
0.0643296 	2.88074e-05 	0.000274837 	0
0.0647764 	3.33513e-05 	0.000274569 	0
0.0652231 	2.89893e-05 	0.000256219 	0
0.0656698 	2.34492e-05 	0.000227735 	-1.21603e-29
0.0661166 	1.41271e-05 	0.000166716 	-6.33616e-29
0.0665633 	4.80508e-06 	0.000105697 	-1.14563e-28
0.0670101 	1.61952e-06 	6.33455e-05 	-1.278e-28
0.0674568 	4.79468e-07 	2.72163e-05 	-1.28382e-28
0.0679035 	-3.44111e-07 	5.07611e-07 	-1.15371e-28
0.0683503 	-2.78544e-07 	2.65929e-07 	-6.41693e-29
0.068797 	-2.12977e-07 	2.42461e-08 	-1.29681e-29
0.0692437 	-2.18476e-07 	-3.14065e-08 	-9.96711e-31
0.0696905 	-2.44606e-07 	-3.30505e-08 	-4.1469e-31
0.0701372 	-2.63133e-07 	-3.47944e-08 	0
0.0705839 	-2.62817e-07 	-3.67856e-08 	0
0.0710307 	-2.62501e-07 	-3.87768e-08 	0
0.0714774 	-2.61567e-07 	-4.11067e-08 	-4.31712e-30
0.0719241 	-2.60479e-07 	-4.35213e-08 	-9.71352e-30
0.0723709 	-2.59151e-07 	-4.60733e-08 	-1.54494e-29
0.0728176 	-2.57295e-07 	-4.89273e-08 	-2.19322e-29
0.0732643 	-2.55439e-07 	-5.17814e-08 	-2.8415e-29
0.0737111 	-2.5296e-07 	-5.49885e-08 	-2.50974e-29
0.0741578 	-2.50349e-07 	-5.82704e-08 	-1.9701e-29
0.0746045 	-2.47486e-07 	-6.16895e-08 	-1.3938e-29
0.0750513 	-2.44129e-07 	-6.53781e-08 	-7.45519e-30
0.075498 	-2.40772e-07 	-6.90666e-08 	-9.72417e-31
0.0759447 	-2.36784e-07 	-7.3085e-08 	0
0.0763915 	-2.32684e-07 	-7.71617e-08 	0
0.0768382 	-2.28315e-07 	-8.13758e-08 	0
0.0772849 	-2.23472e-07 	-8.58317e-08 	0
0.0777317 	-2.18628e-07 	-9.02876e-08 	0
0.0781784 	-2.13129e-07 	-9.50797e-08 	0
0.0786251 	-2.07536e-07 	-9.99199e-08 	0
0.0790719 	-2.01651e-07 	-1.04917e-07 	0
0.0795186 	-1.95303e-07 	-1.10163e-07 	0
0.0799653 	-1.88956e-07 	-1.15408e-07 	0
0.0804121 	-1.81925e-07 	-1.21053e-07 	0
0.0808588 	-1.74818e-07 	-1.26743e-07 	0
0.0813055 	-1.67398e-07 	-1.3264e-07 	0
0.0817523 	-1.59533e-07 	-1.38833e-07 	0
0.082199 	-1.51668e-07 	-1.45025e-07 	0
0.0826457 	-1.43112e-07 	-1.51756e-07 	0
0.0830925 	-1.34499e-07 	-1.5853e-07 	0
0.0835392 	-1.25572e-07 	-1.65602e-07 	0
0.0839859 	-1.16241e-07 	-1.73058e-07 	0
0.0844327 	-1.06909e-07 	-1.80514e-07 	0
0.0848794 	-9.69462e-08 	-1.8873e-07 	0
0.0853261 	-8.69502e-08 	-1.96987e-07 	0
0.0857729 	-7.669e-08 	-2.05674e-07 	0
0.0862196 	-6.6123e-08 	-2.14862e-07 	0
0.0866663 	-5.55559e-08 	-2.24049e-07 	0
0.0871131 	-4.45699e-08 	-2.34263e-07 	0
0.0875598 	-3.35732e-08 	-2.44503e-07 	0
0.0880065 	-2.24622e-08 	-2.00804e-07 	0
0.0884533 	-1.12311e-08 	-1.00402e-07 	0
0.0889 	-3.52658e-22 	-3.70162e-21 	0
