# f_l  POINT_DATA 1357
#  x  y  z  f_l
0.0576413 0.001665 -6.41496e-20 0.5
0.0575768 0.00222 0.0025 0.5
0.0575768 0.00222 -0.0025 0.5
0.0576262 0.00111 0.0025 0.5
0.0576262 0.00111 -0.0025 0.5
0.0576524 0.00208757 -0.00190347 0.5
0.0576524 0.00208757 0.00190347 0.5
0.057682 0.00121285 0.0020367 0.5
0.057682 0.00121285 -0.0020367 0.5
0.057687 0.00101212 -0.00205912 0.5
0.057687 0.00101212 0.00205912 0.5
0.0576681 0.002775 -1.94809e-19 0.5
0.0576566 0.00234821 -0.00192249 0.5
0.0576566 0.00234821 0.00192249 0.5
0.0577346 0.000555 0 0.5
0.0576524 0.00208757 -0.0025 0.5
0.0576524 0.00208757 0.0025 0.5
0.057682 0.00121285 0.0025 0.5
0.057682 0.00121285 -0.0025 0.5
0.057687 0.00101212 0.0025 0.5
0.057687 0.00101212 -0.0025 0.5
0.0576566 0.00234821 -0.0025 0.5
0.0576566 0.00234821 0.0025 0.5
0.0576181 0.00333 0.0025 0.5
0.0576181 0.00333 -0.0025 0.5
0.0576797 0.00322486 -0.00202641 0.5
0.0576797 0.00322486 0.00202641 0.5
0.0576826 0.00343228 0.0020393 0.5
0.0576826 0.00343228 -0.0020393 0.5
0.0576797 0.00322486 0.0025 0.5
0.0576797 0.00322486 -0.0025 0.5
0.0576946 0.003885 -6.88879e-20 0.5
0.0576826 0.00343228 0.0025 0.5
0.0576826 0.00343228 -0.0025 0.5
0.057785 0.000978855 -0.0025 0.5
0.057785 0.000978855 0.0025 0.5
0.0576643 0.00444 0.0025 0.5
0.0576643 0.00444 -0.0025 0.5
0.0577092 0.0043643 -0.00215899 0.5
0.0577092 0.0043643 0.00215899 0.5
0.0577092 0.0043643 0.0025 0.5
0.0577092 0.0043643 -0.0025 0.5
0.0577116 0.00451336 0.00216954 0.5
0.0577116 0.00451336 -0.00216954 0.5
0.0577116 0.00451336 0.0025 0.5
0.0577116 0.00451336 -0.0025 0.5
0.0577267 0.004995 0 0.5
0.0577232 0.00555 0.0025 0.5
0.0577232 0.00555 -0.0025 0.5
0.0577463 0.00551139 -0.00232607 0.5
0.0577463 0.00551139 0.00232607 0.5
0.0577463 0.00551139 0.0025 0.5
0.0577463 0.00551139 -0.0025 0.5
0.0577478 0.00558715 0.00233268 0.5
0.0577478 0.00558715 -0.00233268 0.5
0.0577478 0.00558715 0.0025 0.5
0.0577478 0.00558715 -0.0025 0.5
0.0577683 0.006105 2.40936e-20 0.5
0.0581024 0.000317029 0.0025 0.5
0.0581024 0.000317029 -0.0025 0.5
0.057785 0.00644092 0.0025 0.5
0.057785 0.00644092 -0.0025 0.5
0.0577941 0.00665093 -0.00245916 0.5
0.0577941 0.00665093 0.00245916 0.5
0.0577941 0.00665093 0.0025 0.5
0.0577941 0.00665093 -0.0025 0.5
0.0577955 0.00667049 -0.00245275 0.5
0.0577955 0.00667049 0.00245275 0.5
0.0577955 0.00667049 0.0025 0.5
0.0577955 0.00667049 -0.0025 0.5
0.0578008 0.00666 0.0025 0.5
0.0578008 0.00666 -0.0025 0.5
0.0578225 0.007215 3.35486e-21 0.5
0.0583406 0.000317029 0 0.5
0.057851 0.00770404 -0.00220288 0.5
0.057851 0.00770404 0.00220288 0.5
0.057851 0.00770404 -0.0025 0.5
0.057851 0.00770404 0.0025 0.5
0.0578642 0.0078491 -0.0021437 0.5
0.0578642 0.0078491 0.0021437 0.5
0.0578642 0.0078491 0.0025 0.5
0.0578642 0.0078491 -0.0025 0.5
0.0578934 0.00777 0.0025 0.5
0.0578934 0.00777 -0.0025 0.5
0.0578937 0.008325 -2.05747e-19 0.5
0.0579233 0.00874185 -0.00187771 0.5
0.0579233 0.00874185 0.00187771 0.5
0.0579233 0.00874185 0.0025 0.5
0.0579233 0.00874185 -0.0025 0.5
0.0585789 0.000317029 0.0025 0.5
0.0585789 0.000317029 -0.0025 0.5
0.0579581 0.00905294 -0.001721 0.5
0.0579581 0.00905294 0.001721 0.5
0.0579581 0.00905294 0.0025 0.5
0.0579581 0.00905294 -0.0025 0.5
0.0579962 0.00888 0.0025 0.5
0.0579962 0.00888 -0.0025 0.5
0.0579874 0.009435 -2.02005e-19 0.5
0.0580154 0.00975984 -0.00146325 0.5
0.0580154 0.00975984 0.00146325 0.5
0.0580154 0.00975984 0.0025 0.5
0.0580154 0.00975984 -0.0025 0.5
0.0588963 0.000572857 -0.0025 0.5
0.0588963 0.000572857 0.0025 0.5
0.0581074 0.00999 0.0025 0.5
0.0581074 0.00999 -0.0025 0.5
0.0580893 0.010294 0.0025 0.5
0.0580893 0.010294 -0.0025 0.5
0.0581123 0.01053 -1.86551e-19 0.5
0.0581343 0.0107511 0.0025 0.5
0.0581343 0.0107511 -0.0025 0.5
0.0591741 0.0002775 0.0025 0.5
0.0591741 0.0002775 -0.0025 0.5
0.0582244 0.0111 -0.0025 0.5
0.0582244 0.0111 0.0025 0.5
0.0582899 0.0116765 2.78809e-19 0.5
0.0594519 0.0002775 -7.45167e-21 0.5
0.0582786 0.0115931 -0.0025 0.5
0.0582786 0.0115931 0.0025 0.5
0.0582918 0.0117038 -0.0025 0.5
0.0582918 0.0117038 0.0025 0.5
0.0583443 0.01221 0.0025 0.5
0.0583443 0.01221 -0.0025 0.5
0.0597297 0.0002775 0.0025 0.5
0.0597297 0.0002775 -0.0025 0.5
0.0584777 0.0127727 -8.44898e-19 0.5
0.0584666 0.0126392 0.0025 0.5
0.0584666 0.0126392 -0.0025 0.5
0.0584898 0.012914 0.0025 0.5
0.0584898 0.012914 -0.0025 0.5
0.0584649 0.01332 0.0025 0.5
0.0584649 0.01332 -0.0025 0.5
0.0600075 0.000555 -0.0025 0.5
0.0600075 0.000555 0.0025 0.5
0.058608 0.0137012 5.37544e-19 0.5
0.0586016 0.0136143 -0.0025 0.5
0.0586016 0.0136143 0.0025 0.5
0.0602853 0.0002775 0.0025 0.5
0.0602853 0.0002775 -0.0025 0.5
0.0586433 0.0141773 -0.00136186 0.5
0.0586433 0.0141773 0.00136186 0.5
0.0585815 0.01443 0.0025 0.5
0.0585815 0.01443 -0.0025 0.5
0.0586433 0.0141773 -0.0025 0.5
0.0586433 0.0141773 0.0025 0.5
0.0587047 0.0146213 -0.0016381 0.5
0.0587047 0.0146213 0.0016381 0.5
0.0587047 0.0146213 0.0025 0.5
0.0587047 0.0146213 -0.0025 0.5
0.0605631 0.0002775 -9.93434e-23 0.5
0.0587282 0.014985 -4.77833e-20 0.5
0.0586869 0.01554 0.0025 0.5
0.0586869 0.01554 -0.0025 0.5
0.0587517 0.0153956 -0.00184972 0.5
0.0587517 0.0153956 0.00184972 0.5
0.0587517 0.0153956 0.0025 0.5
0.0587517 0.0153956 -0.0025 0.5
0.0587799 0.0156562 0.00197671 0.5
0.0587799 0.0156562 -0.00197671 0.5
0.0587799 0.0156562 0.0025 0.5
0.0587799 0.0156562 -0.0025 0.5
0.0608409 0.0002775 0.0025 0.5
0.0608409 0.0002775 -0.0025 0.5
0.0588025 0.016095 -1.32833e-19 0.5
0.0611187 0.000555 -0.0025 0.5
0.0611187 0.000555 0.0025 0.5
0.0588552 0.01665 0.0025 0.5
0.0588552 0.01665 -0.0025 0.5
0.0588708 0.0166246 -0.00238569 0.5
0.0588708 0.0166246 0.00238569 0.5
0.0588708 0.0166246 0.0025 0.5
0.0588708 0.0166246 -0.0025 0.5
0.0588746 0.0166716 0.00240251 0.5
0.0588746 0.0166716 -0.00240251 0.5
0.0588746 0.0166716 0.0025 0.5
0.0588746 0.0166716 -0.0025 0.5
0.0588963 0.0168232 -0.0025 0.5
0.0588963 0.0168232 0.0025 0.5
0.0589517 0.017205 -7.8899e-20 0.5
0.0613966 0.0002775 -0.0025 0.5
0.0613966 0.0002775 0.0025 0.5
0.0590138 0.0176426 -0.00197131 0.5
0.0590138 0.0176426 0.00197131 0.5
0.0590138 0.0176426 0.0025 0.5
0.0590138 0.0176426 -0.0025 0.5
0.0616744 0.0002775 0 0.5
0.0591137 0.01776 0.0025 0.5
0.0591137 0.01776 -0.0025 0.5
0.05909 0.0179535 -0.00162836 0.5
0.05909 0.0179535 0.00162836 0.5
0.05909 0.0179535 0.0025 0.5
0.05909 0.0179535 -0.0025 0.5
0.0591773 0.0184892 -3.12074e-21 0.5
0.0619522 0.0002775 -0.0025 0.5
0.0619522 0.0002775 0.0025 0.5
0.0591903 0.0185763 0.0025 0.5
0.0591903 0.0185763 -0.0025 0.5
0.06223 0.000555 -0.0025 0.5
0.06223 0.000555 0.0025 0.5
0.0593359 0.01887 0.0025 0.5
0.0593359 0.01887 -0.0025 0.5
0.0594297 0.0194304 -1.53466e-20 0.5
0.0594228 0.0193959 0.0025 0.5
0.0594228 0.0193959 -0.0025 0.5
0.0625078 0.0002775 0.0025 0.5
0.0625078 0.0002775 -0.0025 0.5
0.0594316 0.0194453 0.0025 0.5
0.0594316 0.0194453 -0.0025 0.5
0.0627856 0.0002775 3.76374e-21 0.5
0.0595251 0.01998 0.0025 0.5
0.0595251 0.01998 -0.0025 0.5
0.0596846 0.020386 8.07815e-20 0.5
0.0596756 0.0203116 -0.0025 0.5
0.0596756 0.0203116 0.0025 0.5
0.0630634 0.0002775 -0.0025 0.5
0.0630634 0.0002775 0.0025 0.5
0.0597337 0.0208165 -0.00126785 0.5
0.0597337 0.0208165 0.00126785 0.5
0.0597337 0.0208165 -0.0025 0.5
0.0597337 0.0208165 0.0025 0.5
0.0596927 0.02109 -0.0025 0.5
0.0596927 0.02109 0.0025 0.5
0.0633413 0.000555 -0.0025 0.5
0.0633413 0.000555 0.0025 0.5
0.0598242 0.0212731 0.00167541 0.5
0.0598242 0.0212731 -0.00167541 0.5
0.0598242 0.0212731 0.0025 0.5
0.0598242 0.0212731 -0.0025 0.5
0.0598578 0.021645 -1.97305e-19 0.5
0.0636191 0.0002775 0.0025 0.5
0.0636191 0.0002775 -0.0025 0.5
0.0598898 0.0220824 -0.00197045 0.5
0.0598898 0.0220824 0.00197045 0.5
0.0598356 0.0222 0.0025 0.5
0.0598356 0.0222 -0.0025 0.5
0.0598898 0.0220824 0.0025 0.5
0.0598898 0.0220824 -0.0025 0.5
0.0638969 0.0002775 -5.95927e-22 0.5
0.059918 0.0222894 0.00209741 0.5
0.059918 0.0222894 -0.00209741 0.5
0.059918 0.0222894 -0.0025 0.5
0.059918 0.0222894 0.0025 0.5
0.0599477 0.022755 -2.43698e-20 0.5
0.0641747 0.0002775 0.0025 0.5
0.0641747 0.0002775 -0.0025 0.5
0.0600075 0.0231986 -0.0025 0.5
0.0600075 0.0231986 0.0025 0.5
0.0600169 0.0233006 -0.00245761 0.5
0.0600169 0.0233006 0.00245761 0.5
0.0600169 0.0233006 0.0025 0.5
0.0600169 0.0233006 -0.0025 0.5
0.0600212 0.0233237 -0.00243845 0.5
0.0600212 0.0233237 0.00243845 0.5
0.0600212 0.0233237 -0.0025 0.5
0.0600212 0.0233237 0.0025 0.5
0.0600279 0.02331 0.0025 0.5
0.0600279 0.02331 -0.0025 0.5
0.0644525 0.000555 -0.0025 0.5
0.0644525 0.000555 0.0025 0.5
0.0600972 0.023865 -8.85346e-20 0.5
0.0647303 0.0002775 0.0025 0.5
0.0647303 0.0002775 -0.0025 0.5
0.0601582 0.0242694 -0.00182177 0.5
0.0601582 0.0242694 0.00182177 0.5
0.0601582 0.0242694 0.0025 0.5
0.0601582 0.0242694 -0.0025 0.5
0.0650081 0.0002775 0 0.5
0.0602943 0.02442 0.0025 0.5
0.0602943 0.02442 -0.0025 0.5
0.0602925 0.0247047 0.0025 0.5
0.0602925 0.0247047 -0.0025 0.5
0.060338 0.0249474 2.08867e-19 0.5
0.0652859 0.0002775 0.0025 0.5
0.0652859 0.0002775 -0.0025 0.5
0.0603753 0.0251626 0.0025 0.5
0.0603753 0.0251626 -0.0025 0.5
0.0655638 0.000555 -0.0025 0.5
0.0655638 0.000555 0.0025 0.5
0.0605336 0.02553 0.0025 0.5
0.0605336 0.02553 -0.0025 0.5
0.0658416 0.0002775 0.0025 0.5
0.0658416 0.0002775 -0.0025 0.5
0.0606868 0.0260541 -1.82859e-19 0.5
0.0606781 0.0259702 0.0025 0.5
0.0606781 0.0259702 -0.0025 0.5
0.0661194 0.0002775 -1.81913e-21 0.5
0.0607202 0.0262419 0.0025 0.5
0.0607202 0.0262419 -0.0025 0.5
0.0607316 0.02664 0.0025 0.5
0.0607316 0.02664 -0.0025 0.5
0.0663972 0.0002775 0.0025 0.5
0.0663972 0.0002775 -0.0025 0.5
0.0608819 0.0268766 0.00143439 0.5
0.0608819 0.0268766 -0.00143439 0.5
0.0608819 0.0268766 0.0025 0.5
0.0608819 0.0268766 -0.0025 0.5
0.0609179 0.027195 1.46048e-18 0.5
0.066675 0.000555 -0.0025 0.5
0.066675 0.000555 0.0025 0.5
0.0609543 0.0275858 -0.0017602 0.5
0.0609543 0.0275858 0.0017602 0.5
0.0609543 0.0275858 -0.0025 0.5
0.0609543 0.0275858 0.0025 0.5
0.0608997 0.02775 -0.0025 0.5
0.0608997 0.02775 0.0025 0.5
0.0669528 0.0002775 0.0025 0.5
0.0669528 0.0002775 -0.0025 0.5
0.0610022 0.0278664 -0.00197552 0.5
0.0610022 0.0278664 0.00197552 0.5
0.0610022 0.0278664 -0.0025 0.5
0.0610022 0.0278664 0.0025 0.5
0.0672306 0.0002775 9.10876e-20 0.5
0.0610366 0.028305 -2.58958e-18 0.5
0.0610256 0.02886 0.0025 0.5
0.0610256 0.02886 -0.0025 0.5
0.0610624 0.0288037 0.00224643 0.5
0.0610624 0.0288037 -0.00224643 0.5
0.0675084 0.0002775 0.0025 0.5
0.0675084 0.0002775 -0.0025 0.5
0.0610624 0.0288037 0.0025 0.5
0.0610624 0.0288037 -0.0025 0.5
0.0610725 0.0289062 0.00229174 0.5
0.0610725 0.0289062 -0.00229174 0.5
0.0610725 0.0289062 0.0025 0.5
0.0610725 0.0289062 -0.0025 0.5
0.0610963 0.029415 1.02704e-18 0.5
0.0677863 0.000555 -0.0025 0.5
0.0677863 0.000555 0.0025 0.5
0.0611188 0.0294598 -0.0025 0.5
0.0611188 0.0294598 0.0025 0.5
0.0680641 0.0002775 0.0025 0.5
0.0680641 0.0002775 -0.0025 0.5
0.0611557 0.0299331 -0.00233363 0.5
0.0611557 0.0299331 0.00233363 0.5
0.0611557 0.0299331 0.0025 0.5
0.0611557 0.0299331 -0.0025 0.5
0.0611753 0.0300265 -0.00224569 0.5
0.0611753 0.0300265 0.00224569 0.5
0.0611997 0.02997 0.0025 0.5
0.0611997 0.02997 -0.0025 0.5
0.0611753 0.0300265 0.0025 0.5
0.0611753 0.0300265 -0.0025 0.5
0.0683419 0.0002775 1.14121e-19 0.5
0.0612431 0.030525 -8.37421e-20 0.5
0.0612928 0.0309062 -0.00171708 0.5
0.0612928 0.0309062 0.00171708 0.5
0.0686197 0.0002775 0.0025 0.5
0.0686197 0.0002775 -0.0025 0.5
0.0612928 0.0309062 0.0025 0.5
0.0612928 0.0309062 -0.0025 0.5
0.0614383 0.03108 0.0025 0.5
0.0614383 0.03108 -0.0025 0.5
0.0688975 0.000555 -0.0025 0.5
0.0688975 0.000555 0.0025 0.5
0.0614366 0.0313975 0.0025 0.5
0.0614366 0.0313975 -0.0025 0.5
0.061493 0.0316702 0 0.5
0.0691753 0.0002775 0.0025 0.5
0.0691753 0.0002775 -0.0025 0.5
0.0615104 0.0317988 0.0025 0.5
0.0615104 0.0317988 -0.0025 0.5
0.0694531 0.0002775 9.36031e-20 0.5
0.0616887 0.03219 0.0025 0.5
0.0616887 0.03219 -0.0025 0.5
0.0697309 0.0002775 0.0025 0.5
0.0697309 0.0002775 -0.0025 0.5
0.0618707 0.0325489 0.0025 0.5
0.0618707 0.0325489 -0.0025 0.5
0.0619052 0.032767 -2.3288e-21 0.5
0.0700088 0.000555 -0.0025 0.5
0.0700088 0.000555 0.0025 0.5
0.061937 0.0330073 0.0025 0.5
0.061937 0.0330073 -0.0025 0.5
0.0702866 0.0002775 0.0025 0.5
0.0702866 0.0002775 -0.0025 0.5
0.0618998 0.0333 0.0025 0.5
0.0618998 0.0333 -0.0025 0.5
0.062034 0.0334958 0.00161808 0.5
0.062034 0.0334958 -0.00161808 0.5
0.062034 0.0334958 -0.0025 0.5
0.062034 0.0334958 0.0025 0.5
0.0705644 0.0002775 2.66209e-19 0.5
0.0620665 0.033855 1.4624e-20 0.5
0.0708422 0.0002775 0.0025 0.5
0.0708422 0.0002775 -0.0025 0.5
0.0620836 0.0342638 -0.00184131 0.5
0.0620836 0.0342638 0.00184131 0.5
0.0620836 0.0342638 -0.0025 0.5
0.0620836 0.0342638 0.0025 0.5
0.0620133 0.03441 0.0025 0.5
0.0620133 0.03441 -0.0025 0.5
0.0621054 0.0345344 0.00193943 0.5
0.0621054 0.0345344 -0.00193943 0.5
0.0621054 0.0345344 0.0025 0.5
0.0621054 0.0345344 -0.0025 0.5
0.07112 0.000555 -0.0025 0.5
0.07112 0.000555 0.0025 0.5
0.0621221 0.034965 4.12027e-20 0.5
0.0713978 0.0002775 0.0025 0.5
0.0713978 0.0002775 -0.0025 0.5
0.0621482 0.0354383 -0.00213182 0.5
0.0621482 0.0354383 0.00213182 0.5
0.0621005 0.03552 0.0025 0.5
0.0621005 0.03552 -0.0025 0.5
0.0621482 0.0354383 0.0025 0.5
0.0621482 0.0354383 -0.0025 0.5
0.0621636 0.0355863 0.00220142 0.5
0.0621636 0.0355863 -0.00220142 0.5
0.0621636 0.0355863 0.0025 0.5
0.0621636 0.0355863 -0.0025 0.5
0.0716756 0.0002775 9.36031e-20 0.5
0.0621879 0.036075 4.31352e-20 0.5
0.0719534 0.0002775 0.0025 0.5
0.0719534 0.0002775 -0.0025 0.5
0.0621817 0.03663 0.0025 0.5
0.0621817 0.03663 -0.0025 0.5
0.0622032 0.0366032 0.0023795 0.5
0.0622032 0.0366032 -0.0023795 0.5
0.0622032 0.0366032 0.0025 0.5
0.0622032 0.0366032 -0.0025 0.5
0.0622061 0.0366539 0.00239234 0.5
0.0622061 0.0366539 -0.00239234 0.5
0.0622061 0.0366539 0.0025 0.5
0.0622061 0.0366539 -0.0025 0.5
0.0722313 0.000555 -0.0025 0.5
0.0722313 0.000555 0.0025 0.5
0.0622206 0.037185 5.72795e-19 0.5
0.0725091 0.0002775 0.0025 0.5
0.0725091 0.0002775 -0.0025 0.5
0.06223 0.0373051 0.0025 0.5
0.06223 0.0373051 -0.0025 0.5
0.0727869 0.0002775 1.145e-19 0.5
0.0622451 0.0377249 -0.00243184 0.5
0.0622451 0.0377249 0.00243184 0.5
0.0622451 0.0377249 0.0025 0.5
0.0622451 0.0377249 -0.0025 0.5
0.0622476 0.0377576 -0.00242061 0.5
0.0622476 0.0377576 0.00242061 0.5
0.0622476 0.0377576 0.0025 0.5
0.0622476 0.0377576 -0.0025 0.5
0.0622614 0.03774 0.0025 0.5
0.0622614 0.03774 -0.0025 0.5
0.0622735 0.038295 -7.273e-19 0.5
0.0730647 0.0002775 0.0025 0.5
0.0730647 0.0002775 -0.0025 0.5
0.0733425 0.000555 -0.0025 0.5
0.0733425 0.000555 0.0025 0.5
0.0623103 0.0387698 -0.00213862 0.5
0.0623103 0.0387698 0.00213862 0.5
0.0623103 0.0387698 0.0025 0.5
0.0623103 0.0387698 -0.0025 0.5
0.0623905 0.03885 0.0025 0.5
0.0623905 0.03885 -0.0025 0.5
0.0623427 0.0389626 -0.0019929 0.5
0.0623427 0.0389626 0.0019929 0.5
0.0623427 0.0389626 0.0025 0.5
0.0623427 0.0389626 -0.0025 0.5
0.0736203 0.0002775 0.0025 0.5
0.0736203 0.0002775 -0.0025 0.5
0.0623833 0.039405 2.40859e-20 0.5
0.0738981 0.0002775 1.12679e-19 0.5
0.0624077 0.0397825 -0.00170026 0.5
0.0624077 0.0397825 0.00170026 0.5
0.0624077 0.0397825 0.0025 0.5
0.0624077 0.0397825 -0.0025 0.5
0.0741759 0.0002775 0.0025 0.5
0.0741759 0.0002775 -0.0025 0.5
0.0625267 0.03996 0.0025 0.5
0.0625267 0.03996 -0.0025 0.5
0.0624649 0.0401947 -0.001443 0.5
0.0624649 0.0401947 0.001443 0.5
0.0624649 0.0401947 0.0025 0.5
0.0624649 0.0401947 -0.0025 0.5
0.0624888 0.040515 5.05125e-21 0.5
0.0744538 0.000555 -0.0025 0.5
0.0744538 0.000555 0.0025 0.5
0.0625044 0.0407959 -0.00126514 0.5
0.0625044 0.0407959 0.00126514 0.5
0.0625044 0.0407959 0.0025 0.5
0.0625044 0.0407959 -0.0025 0.5
0.0747316 0.0002775 0.0025 0.5
0.0747316 0.0002775 -0.0025 0.5
0.0626253 0.04107 0.0025 0.5
0.0626253 0.04107 -0.0025 0.5
0.0750094 0.0002775 1.14375e-19 0.5
0.0625778 0.0414175 0.0025 0.5
0.0625778 0.0414175 -0.0025 0.5
0.0625894 0.0416178 0 0.5
0.0625996 0.0418108 0.0025 0.5
0.0625996 0.0418108 -0.0025 0.5
0.0752872 0.0002775 0.0025 0.5
0.0752872 0.0002775 -0.0025 0.5
0.0626991 0.04218 0.0025 0.5
0.0626991 0.04218 -0.0025 0.5
0.075565 0.000555 -0.0025 0.5
0.075565 0.000555 0.0025 0.5
0.0626802 0.0426297 0.0025 0.5
0.0626802 0.0426297 -0.0025 0.5
0.0626851 0.042732 0 0.5
0.0758428 0.0002775 0.0025 0.5
0.0758428 0.0002775 -0.0025 0.5
0.0626893 0.0428312 0.0025 0.5
0.0626893 0.0428312 -0.0025 0.5
0.0761206 0.0002775 1.14623e-19 0.5
0.0627537 0.04329 0.0025 0.5
0.0627537 0.04329 -0.0025 0.5
0.0763984 0.0002775 0.0025 0.5
0.0763984 0.0002775 -0.0025 0.5
0.0627692 0.0438678 2.05151e-22 0.5
0.0627673 0.0438267 0.0025 0.5
0.0627673 0.0438267 -0.0025 0.5
0.0627686 0.043862 -0.0025 0.5
0.0627686 0.043862 0.0025 0.5
0.0766763 0.000555 -0.0025 0.5
0.0766763 0.000555 0.0025 0.5
0.0627925 0.0444 0.0025 0.5
0.0627925 0.0444 -0.0025 0.5
0.0769541 0.0002775 0.0025 0.5
0.0769541 0.0002775 -0.0025 0.5
0.0772319 0.0002775 1.08196e-19 0.5
0.0628291 0.0449556 2.01664e-20 0.5
0.0628281 0.0449126 0.0025 0.5
0.0628281 0.0449126 -0.0025 0.5
0.0628299 0.0449993 0.0025 0.5
0.0628299 0.0449993 -0.0025 0.5
0.0775097 0.0002775 0.0025 0.5
0.0775097 0.0002775 -0.0025 0.5
0.0628176 0.04551 0.0025 0.5
0.0628176 0.04551 -0.0025 0.5
0.0777875 0.000555 -0.0025 0.5
0.0777875 0.000555 0.0025 0.5
0.0628611 0.0459896 -0.0025 0.5
0.0628611 0.0459896 0.0025 0.5
0.0628621 0.0460656 -4.15403e-20 0.5
0.0628629 0.0461422 0.0025 0.5
0.0628629 0.0461422 -0.0025 0.5
0.0780653 0.0002775 0.0025 0.5
0.0780653 0.0002775 -0.0025 0.5
0.0628318 0.04662 0.0025 0.5
0.0628318 0.04662 -0.0025 0.5
0.0783431 0.0002775 8.26565e-20 0.5
0.0628785 0.0470822 0.0025 0.5
0.0628785 0.0470822 -0.0025 0.5
0.0628791 0.0471753 3.11913e-20 0.5
0.0786209 0.0002775 0.0025 0.5
0.0786209 0.0002775 -0.0025 0.5
0.0628795 0.0472688 0.0025 0.5
0.0628795 0.0472688 -0.0025 0.5
0.0788988 0.000555 -0.0025 0.5
0.0788988 0.000555 0.0025 0.5
0.0628381 0.04773 0.0025 0.5
0.0628381 0.04773 -0.0025 0.5
0.0791766 0.0002775 0.0025 0.5
0.0791766 0.0002775 -0.0025 0.5
0.0628836 0.0481872 -0.0025 0.5
0.0628836 0.0481872 0.0025 0.5
0.0628835 0.0482849 -3.62944e-18 0.5
0.0628832 0.0483824 0.0025 0.5
0.0628832 0.0483824 -0.0025 0.5
0.0794544 0.0002775 9.54222e-20 0.5
0.0628356 0.04884 0.0025 0.5
0.0628356 0.04884 -0.0025 0.5
0.0797322 0.0002775 0.0025 0.5
0.0797322 0.0002775 -0.0025 0.5
0.0628715 0.0493092 0.0025 0.5
0.0628715 0.0493092 -0.0025 0.5
0.0628706 0.0493943 3.28994e-18 0.5
0.0628695 0.0494788 0.0025 0.5
0.0628695 0.0494788 -0.0025 0.5
0.08001 0.000555 -0.0025 0.5
0.08001 0.000555 0.0025 0.5
0.0628216 0.04995 0.0025 0.5
0.0628216 0.04995 -0.0025 0.5
0.0802878 0.0002775 0.0025 0.5
0.0802878 0.0002775 -0.0025 0.5
0.0805656 0.0002775 1.15842e-19 0.5
0.0628347 0.0505043 2.35281e-18 0.5
0.0628357 0.0504549 0.0025 0.5
0.0628357 0.0504549 -0.0025 0.5
0.0628335 0.0505529 0.0025 0.5
0.0628335 0.0505529 -0.0025 0.5
0.0808434 0.0002775 0.0025 0.5
0.0808434 0.0002775 -0.0025 0.5
0.0627955 0.05106 -0.0025 0.5
0.0627955 0.05106 0.0025 0.5
0.0811213 0.000555 -0.0025 0.5
0.0811213 0.000555 0.0025 0.5
0.0627746 0.0515997 -4.04956e-18 0.5
0.0627741 0.0516035 0.0025 0.5
0.0627741 0.0516035 -0.0025 0.5
0.0627733 0.0516273 0.0025 0.5
0.0627733 0.0516273 -0.0025 0.5
0.0813991 0.0002775 0.0025 0.5
0.0813991 0.0002775 -0.0025 0.5
0.0627577 0.05217 0.0025 0.5
0.0627577 0.05217 -0.0025 0.5
0.0816769 0.0002775 9.5745e-20 0.5
0.0626974 0.0526368 -0.0025 0.5
0.0626974 0.0526368 0.0025 0.5
0.0626938 0.0527275 1.17368e-18 0.5
0.0819547 0.0002775 0.0025 0.5
0.0819547 0.0002775 -0.0025 0.5
0.0626898 0.0528208 -0.0025 0.5
0.0626898 0.0528208 0.0025 0.5
0.0822325 0.000555 -0.0025 0.5
0.0822325 0.000555 0.0025 0.5
0.0627079 0.05328 0.0025 0.5
0.0627079 0.05328 -0.0025 0.5
0.0626153 0.0536649 0.0025 0.5
0.0626153 0.0536649 -0.0025 0.5
0.0825103 0.0002775 0.0025 0.5
0.0825103 0.0002775 -0.0025 0.5
0.0626073 0.0538406 -1.04636e-18 0.5
0.0625986 0.0540218 0.0025 0.5
0.0625986 0.0540218 -0.0025 0.5
0.0827881 0.0002775 8.32524e-20 0.5
0.0626463 0.05439 0.0025 0.5
0.0626463 0.05439 -0.0025 0.5
0.0830659 0.0002775 0.0025 0.5
0.0830659 0.0002775 -0.0025 0.5
0.0625334 0.0546931 0.0025 0.5
0.0625334 0.0546931 -0.0025 0.5
0.0625296 0.0547771 8.80396e-19 0.5
0.0833437 0.000555 -0.0025 0.5
0.0833437 0.000555 0.0025 0.5
0.062507 0.0552233 -0.00125357 0.5
0.062507 0.0552233 0.00125357 0.5
0.062507 0.0552233 -0.0025 0.5
0.062507 0.0552233 0.0025 0.5
0.0836216 0.0002775 0.0025 0.5
0.0836216 0.0002775 -0.0025 0.5
0.062574 0.0555 0.0025 0.5
0.062574 0.0555 -0.0025 0.5
0.0624563 0.0557261 -0.00148163 0.5
0.0624563 0.0557261 0.00148163 0.5
0.0624563 0.0557261 0.0025 0.5
0.0624563 0.0557261 -0.0025 0.5
0.0838994 0.0002775 3.228e-22 0.5
0.0624405 0.056055 -3.58462e-18 0.5
0.0624217 0.0564186 -0.00163763 0.5
0.0624217 0.0564186 0.00163763 0.5
0.0624217 0.0564186 0.0025 0.5
0.0624217 0.0564186 -0.0025 0.5
0.0841772 0.0002775 0.0025 0.5
0.0841772 0.0002775 -0.0025 0.5
0.0624936 0.05661 0.0025 0.5
0.0624936 0.05661 -0.0025 0.5
0.0623872 0.0567671 0.00179252 0.5
0.0623872 0.0567671 -0.00179252 0.5
0.0623872 0.0567671 0.0025 0.5
0.0623872 0.0567671 -0.0025 0.5
0.084455 0.000555 -0.0025 0.5
0.084455 0.000555 0.0025 0.5
0.0623685 0.057165 1.6075e-18 0.5
0.0847328 0.0002775 0.0025 0.5
0.0847328 0.0002775 -0.0025 0.5
0.0623468 0.0576033 -0.00197439 0.5
0.0623468 0.0576033 0.00197439 0.5
0.0623468 0.0576033 0.0025 0.5
0.0623468 0.0576033 -0.0025 0.5
0.0850106 0.0002775 0 0.5
0.0623267 0.0578166 0.0020649 0.5
0.0623267 0.0578166 -0.0020649 0.5
0.0624078 0.05772 0.0025 0.5
0.0624078 0.05772 -0.0025 0.5
0.0623267 0.0578166 0.0025 0.5
0.0623267 0.0578166 -0.0025 0.5
0.0623061 0.058275 8.8208e-19 0.5
0.0852884 0.0002775 0.0025 0.5
0.0852884 0.0002775 -0.0025 0.5
0.0855663 0.000555 -0.0025 0.5
0.0855663 0.000555 0.0025 0.5
0.0622817 0.0587784 -0.00226747 0.5
0.0622817 0.0587784 0.00226747 0.5
0.0622817 0.0587784 0.0025 0.5
0.0622817 0.0587784 -0.0025 0.5
0.062273 0.058873 0.00230646 0.5
0.062273 0.058873 -0.00230646 0.5
0.062273 0.058873 0.0025 0.5
0.062273 0.058873 -0.0025 0.5
0.0623166 0.05883 0.0025 0.5
0.0623166 0.05883 -0.0025 0.5
0.0858441 0.0002775 0.0025 0.5
0.0858441 0.0002775 -0.0025 0.5
0.0622504 0.059385 8.01614e-20 0.5
0.0861219 0.0002775 0 0.5
0.0863997 0.0002775 0.0025 0.5
0.0863997 0.0002775 -0.0025 0.5
0.0622375 0.0599325 -0.0024664 0.5
0.0622375 0.0599325 0.0024664 0.5
0.0622375 0.0599325 0.0025 0.5
0.0622375 0.0599325 -0.0025 0.5
0.0622369 0.0599469 -0.0024688 0.5
0.0622369 0.0599469 0.0024688 0.5
0.0622369 0.0599469 0.0025 0.5
0.0622369 0.0599469 -0.0025 0.5
0.0622441 0.05994 0.0025 0.5
0.0622441 0.05994 -0.0025 0.5
0.0866775 0.000555 -0.0025 0.5
0.0866775 0.000555 0.0025 0.5
0.06223 0.0603927 -0.0025 0.5
0.06223 0.0603927 0.0025 0.5
0.0622244 0.060495 -7.00714e-19 0.5
0.0869553 0.0002775 0.0025 0.5
0.0869553 0.0002775 -0.0025 0.5
0.0622198 0.0610398 0.00245405 0.5
0.0622198 0.0610398 -0.00245405 0.5
0.0622096 0.06105 0.0025 0.5
0.0622096 0.06105 -0.0025 0.5
0.0622198 0.0610398 -0.0025 0.5
0.0622198 0.0610398 0.0025 0.5
0.0622194 0.0610606 0.00245246 0.5
0.0622194 0.0610606 -0.00245246 0.5
0.0622194 0.0610606 0.0025 0.5
0.0622194 0.0610606 -0.0025 0.5
0.0872331 0.0002775 0 0.5
0.0875109 0.0002775 0.0025 0.5
0.0875109 0.0002775 -0.0025 0.5
0.0622148 0.061605 5.62803e-19 0.5
0.0877888 0.000555 -0.0025 0.5
0.0877888 0.000555 0.0025 0.5
0.0622099 0.0621399 -0.00240941 0.5
0.0622099 0.0621399 0.00240941 0.5
0.0622099 0.0621399 0.0025 0.5
0.0622099 0.0621399 -0.0025 0.5
0.0621904 0.06216 0.0025 0.5
0.0621904 0.06216 -0.0025 0.5
0.0622091 0.0621809 -0.002406 0.5
0.0622091 0.0621809 0.002406 0.5
0.0622091 0.0621809 0.0025 0.5
0.0622091 0.0621809 -0.0025 0.5
0.0880666 0.0002775 -0.00125 0.5
0.0880666 0.0002775 0.00125 0.5
0.0880666 0.0002775 0.0025 0.5
0.0880666 0.0002775 -0.0025 0.5
0.0622041 0.062715 1.17569e-19 0.5
0.0883444 0.0002775 0 0.5
0.0883444 0.00111 0.0025 0.5
0.0883444 0.00111 -0.0025 0.5
0.0883444 0.00222 0.0025 0.5
0.0883444 0.00222 -0.0025 0.5
0.0883444 0.00333 0.0025 0.5
0.0883444 0.00333 -0.0025 0.5
0.0883444 0.00444 0.0025 0.5
0.0883444 0.00444 -0.0025 0.5
0.0883444 0.00555 0.0025 0.5
0.0883444 0.00555 -0.0025 0.5
0.0886222 0.000555 0 0.5
0.0883444 0.00666 0.0025 0.5
0.0883444 0.00666 -0.0025 0.5
0.0886222 0.0002775 -0.00125 0.5
0.0886222 0.0002775 0.00125 0.5
0.0886222 0.0008325 0.00125 0.5
0.0886222 0.0008325 -0.00125 0.5
0.0886222 0.001665 0 0.5
0.0886222 0.0002775 0.0025 0.5
0.0886222 0.0002775 -0.0025 0.5
0.0886222 0.0008325 0.0025 0.5
0.0886222 0.0008325 -0.0025 0.5
0.0886222 0.002775 0 0.5
0.0886222 0.0013875 0.0025 0.5
0.0886222 0.0013875 -0.0025 0.5
0.0886222 0.0019425 0.0025 0.5
0.0886222 0.0019425 -0.0025 0.5
0.0886222 0.0024975 0.0025 0.5
0.0886222 0.0024975 -0.0025 0.5
0.0886222 0.003885 0 0.5
0.0886222 0.0030525 0.0025 0.5
0.0886222 0.0030525 -0.0025 0.5
0.0883444 0.00777 0.0025 0.5
0.0883444 0.00777 -0.0025 0.5
0.0886222 0.0036075 0.0025 0.5
0.0886222 0.0036075 -0.0025 0.5
0.0622005 0.0632405 -0.00236727 0.5
0.0622005 0.0632405 0.00236727 0.5
0.0622005 0.0632405 0.0025 0.5
0.0622005 0.0632405 -0.0025 0.5
0.0621732 0.06327 0.0025 0.5
0.0621732 0.06327 -0.0025 0.5
0.0886222 0.0041625 0.0025 0.5
0.0886222 0.0041625 -0.0025 0.5
0.0886222 0.004995 -1.81603e-19 0.5
0.0621997 0.0633003 0.00236355 0.5
0.0621997 0.0633003 -0.00236355 0.5
0.0621997 0.0633003 0.0025 0.5
0.0621997 0.0633003 -0.0025 0.5
0.0886222 0.0047175 0.0025 0.5
0.0886222 0.0047175 -0.0025 0.5
0.0886222 0.0052725 0.0025 0.5
0.0886222 0.0052725 -0.0025 0.5
0.0883444 0.00888 0.0025 0.5
0.0883444 0.00888 -0.0025 0.5
0.0886222 0.006105 -4.31797e-21 0.5
0.0886222 0.0058275 0.0025 0.5
0.0886222 0.0058275 -0.0025 0.5
0.0886222 0.0063825 0.0025 0.5
0.0886222 0.0063825 -0.0025 0.5
0.0886222 0.007215 3.76366e-21 0.5
0.0886222 0.0069375 -0.0025 0.5
0.0886222 0.0069375 0.0025 0.5
0.0883444 0.00999 0.0025 0.5
0.0883444 0.00999 -0.0025 0.5
0.0886222 0.0074925 -0.0025 0.5
0.0886222 0.0074925 0.0025 0.5
0.0886222 0.008325 1.10296e-21 0.5
0.0886222 0.0080475 -0.0025 0.5
0.0886222 0.0080475 0.0025 0.5
0.0886222 0.0086025 -0.0025 0.5
0.0886222 0.0086025 0.0025 0.5
0.0883444 0.0111 0.0025 0.5
0.0883444 0.0111 -0.0025 0.5
0.062196 0.063825 -2.33219e-20 0.5
0.0886222 0.009435 1.92878e-21 0.5
0.0886222 0.0091575 0.0025 0.5
0.0886222 0.0091575 -0.0025 0.5
0.0886222 0.0097125 0.0025 0.5
0.0886222 0.0097125 -0.0025 0.5
0.0883444 0.01221 0.0025 0.5
0.0883444 0.01221 -0.0025 0.5
0.0886222 0.010545 3.88923e-21 0.5
0.0886222 0.0102675 0.0025 0.5
0.0886222 0.0102675 -0.0025 0.5
0.0886222 0.0108225 0.0025 0.5
0.0886222 0.0108225 -0.0025 0.5
0.0883444 0.01332 0.0025 0.5
0.0883444 0.01332 -0.0025 0.5
0.0886222 0.0113775 0.0025 0.5
0.0886222 0.0113775 -0.0025 0.5
0.0886222 0.011655 2.78619e-21 0.5
0.0886222 0.0119325 0.0025 0.5
0.0886222 0.0119325 -0.0025 0.5
0.0621949 0.064345 -0.00234225 0.5
0.0621949 0.064345 0.00234225 0.5
0.0621949 0.064345 0.0025 0.5
0.0621949 0.064345 -0.0025 0.5
0.0621638 0.06438 0.0025 0.5
0.0621638 0.06438 -0.0025 0.5
0.0886222 0.0124875 -0.0025 0.5
0.0886222 0.0124875 0.0025 0.5
0.0886222 0.012765 1.81655e-19 0.5
0.0883444 0.01443 0.0025 0.5
0.0883444 0.01443 -0.0025 0.5
0.0621946 0.0644153 0.00234094 0.5
0.0621946 0.0644153 -0.00234094 0.5
0.0621946 0.0644153 0.0025 0.5
0.0621946 0.0644153 -0.0025 0.5
0.0886222 0.0130425 -0.0025 0.5
0.0886222 0.0130425 0.0025 0.5
0.0886222 0.0135975 0.0025 0.5
0.0886222 0.0135975 -0.0025 0.5
0.0886222 0.013875 0 0.5
0.0883444 0.01554 0.0025 0.5
0.0883444 0.01554 -0.0025 0.5
0.0886222 0.0141525 0.0025 0.5
0.0886222 0.0141525 -0.0025 0.5
0.0886222 0.0147075 -0.0025 0.5
0.0886222 0.0147075 0.0025 0.5
0.0886222 0.014985 7.52748e-21 0.5
0.0621936 0.064935 -1.0871e-21 0.5
0.0883444 0.01665 0.0025 0.5
0.0883444 0.01665 -0.0025 0.5
0.0886222 0.0152625 -0.0025 0.5
0.0886222 0.0152625 0.0025 0.5
0.0886222 0.0158175 0.0025 0.5
0.0886222 0.0158175 -0.0025 0.5
0.0886222 0.016095 0 0.5
0.0883444 0.01776 0.0025 0.5
0.0883444 0.01776 -0.0025 0.5
0.0886222 0.0163725 0.0025 0.5
0.0886222 0.0163725 -0.0025 0.5
0.0886222 0.0169275 0.0025 0.5
0.0886222 0.0169275 -0.0025 0.5
0.0886222 0.017205 0 0.5
0.0621979 0.065458 -0.00235576 0.5
0.0621979 0.065458 0.00235576 0.5
0.0621979 0.065458 0.0025 0.5
0.0621979 0.065458 -0.0025 0.5
0.0621703 0.06549 0.0025 0.5
0.0621703 0.06549 -0.0025 0.5
0.0886222 0.0174825 0.0025 0.5
0.0886222 0.0174825 -0.0025 0.5
0.0883444 0.01887 0.0025 0.5
0.0883444 0.01887 -0.0025 0.5
0.062199 0.065521 0.00236046 0.5
0.062199 0.065521 -0.00236046 0.5
0.062199 0.065521 0.0025 0.5
0.062199 0.065521 -0.0025 0.5
0.06223 0.0655466 -0.0025 0.5
0.06223 0.0655466 0.0025 0.5
0.0886222 0.0180375 0.0025 0.5
0.0886222 0.0180375 -0.0025 0.5
0.0886222 0.018315 -4.24739e-19 0.5
0.0886222 0.0185925 0.0025 0.5
0.0886222 0.0185925 -0.0025 0.5
0.0883444 0.01998 0.0025 0.5
0.0883444 0.01998 -0.0025 0.5
0.0886222 0.0191475 0.0025 0.5
0.0886222 0.0191475 -0.0025 0.5
0.0622033 0.066045 -1.18971e-19 0.5
0.0886222 0.019425 2.54579e-19 0.5
0.0886222 0.0197025 0.0025 0.5
0.0886222 0.0197025 -0.0025 0.5
0.0883444 0.02109 0.0025 0.5
0.0883444 0.02109 -0.0025 0.5
0.0886222 0.0202575 0.0025 0.5
0.0886222 0.0202575 -0.0025 0.5
0.0886222 0.020535 -4.2863e-21 0.5
0.0886222 0.0208125 0.0025 0.5
0.0886222 0.0208125 -0.0025 0.5
0.0883444 0.0222 0.0025 0.5
0.0883444 0.0222 -0.0025 0.5
0.0625078 0.0663225 0.0025 0.5
0.0625078 0.0663225 -0.0025 0.5
0.0886222 0.0213675 0.0025 0.5
0.0886222 0.0213675 -0.0025 0.5
0.0886222 0.021645 -2.44648e-21 0.5
0.0627856 0.0663225 0 0.5
0.0886222 0.0219225 0.0025 0.5
0.0886222 0.0219225 -0.0025 0.5
0.0883444 0.02331 0.0025 0.5
0.0883444 0.02331 -0.0025 0.5
0.0886222 0.0224775 0.0025 0.5
0.0886222 0.0224775 -0.0025 0.5
0.0886222 0.022755 -2.49561e-19 0.5
0.0633413 0.066045 -0.0025 0.5
0.0633413 0.066045 0.0025 0.5
0.0630634 0.0663225 0.0025 0.5
0.0630634 0.0663225 -0.0025 0.5
0.0886222 0.0230325 0.0025 0.5
0.0886222 0.0230325 -0.0025 0.5
0.0883444 0.02442 0.0025 0.5
0.0883444 0.02442 -0.0025 0.5
0.0886222 0.0235875 0.0025 0.5
0.0886222 0.0235875 -0.0025 0.5
0.0886222 0.023865 4.33092e-19 0.5
0.0886222 0.0241425 0.0025 0.5
0.0886222 0.0241425 -0.0025 0.5
0.0636191 0.0663225 0.0025 0.5