0 	0 	0 	0
0.000446734 	-1.70685e-05 	0.000301755 	-6.56864e-27
0.000893467 	-3.41369e-05 	0.00060351 	-1.31373e-26
0.0013402 	-5.8463e-05 	0.000764942 	-1.46708e-26
0.00178693 	-8.96926e-05 	0.000792895 	-1.14149e-26
0.00223367 	-0.000120909 	0.000817454 	-8.15762e-27
0.0026804 	-0.0001516 	0.000709607 	-4.84488e-27
0.00312714 	-0.000182291 	0.000601761 	-1.53214e-27
0.00357387 	-0.000211223 	0.000479519 	0
0.0040206 	-0.000238641 	0.000344891 	0
0.00446734 	-0.000266436 	0.00021224 	0
0.00491407 	-0.000301406 	0.000117154 	0
0.0053608 	-0.000336375 	2.20682e-05 	0
0.00580754 	-0.000382565 	-3.83873e-05 	0
0.00625427 	-0.000437484 	-7.1908e-05 	0
0.00670101 	-0.000494346 	-0.000101517 	-4.33045e-28
0.00714774 	-0.000575185 	-8.28793e-05 	-6.20699e-27
0.00759447 	-0.000656024 	-6.42418e-05 	-1.19809e-26
0.00804121 	-0.000752421 	-2.70183e-05 	-1.7467e-26
0.00848794 	-0.000859742 	2.32551e-05 	-2.27508e-26
0.00893467 	-0.000969524 	7.48881e-05 	-2.6929e-26
0.00938141 	-0.00110146 	0.000138758 	-2.1155e-26
0.00982814 	-0.0012334 	0.000202628 	-1.53811e-26
0.0102749 	-0.00137874 	0.000267505 	-9.90729e-27
0.0107216 	-0.00153255 	0.00033302 	-4.6234e-27
0.0111683 	-0.00168866 	0.000397821 	-2.14956e-28
0.0116151 	-0.0018609 	0.000457626 	-1.93461e-27
0.0120618 	-0.00203313 	0.000517432 	-3.65425e-27
0.0125085 	-0.00221428 	0.000570512 	-5.14304e-27
0.0129553 	-0.00240051 	0.000619768 	-6.50054e-27
0.013402 	-0.00258802 	0.00066691 	-7.39647e-27
0.0138487 	-0.00278278 	0.000702079 	-5.67682e-27
0.0142955 	-0.00297754 	0.000737247 	-3.95717e-27
0.0147422 	-0.00317377 	0.000761321 	-2.47745e-27
0.0151889 	-0.00337074 	0.000779744 	-1.11994e-27
0.0156357 	-0.00356692 	0.000794926 	0
0.0160824 	-0.00375936 	0.000794833 	0
0.0165291 	-0.0039518 	0.00079474 	0
0.0169759 	-0.00413649 	0.000781399 	0
0.0174226 	-0.00431765 	0.000762037 	0
0.0178693 	-0.0044953 	0.000738889 	0
0.0183161 	-0.00465886 	0.000700604 	0
0.0187628 	-0.00482242 	0.000662318 	0
0.0192095 	-0.00496942 	0.000611579 	0
0.0196563 	-0.00510973 	0.000555814 	0
0.020103 	-0.00524373 	0.000496667 	0
0.0205497 	-0.00535596 	0.00042587 	0
0.0209965 	-0.00546819 	0.000355072 	0
0.0214432 	-0.00555678 	0.000275621 	0
0.0218899 	-0.00563695 	0.000193091 	0
0.0223367 	-0.00570834 	0.000108632 	5.09281e-29
0.0227834 	-0.00575338 	1.83869e-05 	2.5464e-28
0.0232302 	-0.00579842 	-7.18582e-05 	4.58353e-28
0.0236769 	-0.00581495 	-0.000164455 	7.03155e-28
0.0241236 	-0.00582259 	-0.000257783 	9.60756e-28
0.0245704 	-0.00581955 	-0.000350577 	1.0915e-27
0.0250171 	-0.00578833 	-0.000441962 	8.87783e-28
0.0254638 	-0.00575711 	-0.000533347 	6.84071e-28
0.0259106 	-0.00569493 	-0.000619141 	8.12054e-28
0.0263573 	-0.00562439 	-0.000703426 	1.02954e-27
0.026804 	-0.00554226 	-0.000784056 	1.28703e-27
0.0272508 	-0.00543308 	-0.000856156 	1.63784e-27
0.0276975 	-0.0053239 	-0.000928257 	1.98865e-27
0.0281442 	-0.0051849 	-0.000986606 	1.66842e-27
0.028591 	-0.00503901 	-0.00104178 	1.19333e-27
0.0290377 	-0.00488232 	-0.00109014 	7.58634e-28
0.0294844 	-0.00470319 	-0.00112435 	4.07821e-28
0.0299312 	-0.00452406 	-0.00115855 	5.70072e-29
0.0303779 	-0.00432144 	-0.00117274 	0
0.0308246 	-0.00411427 	-0.00118305 	0
0.0312714 	-0.00389975 	-0.0011845 	0
0.0317181 	-0.00367159 	-0.00116952 	0
0.0321648 	-0.00344344 	-0.00115454 	0
0.0326116 	-0.00320488 	-0.00111822 	-1.74827e-28
0.0330583 	-0.00296466 	-0.00107851 	-3.77525e-28
0.033505 	-0.00272381 	-0.00103056 	-7.24301e-28
0.0339518 	-0.00248193 	-0.00096888 	-1.31121e-27
0.0343985 	-0.00224005 	-0.000907198 	-1.89811e-27
0.0348452 	-0.00200662 	-0.000830405 	-1.78425e-27
0.035292 	-0.00177427 	-0.000751697 	-1.58155e-27
0.0357387 	-0.00155007 	-0.00066888 	-1.22517e-27
0.0361854 	-0.00133811 	-0.000579899 	-6.3826e-28
0.0366322 	-0.00112615 	-0.000490919 	-5.13543e-29
0.0370789 	-0.000941255 	-0.000399703 	2.03016e-28
0.0375256 	-0.000758958 	-0.000308274 	4.255e-28
0.0379724 	-0.000591985 	-0.000219131 	6.28286e-28
0.0384191 	-0.000445748 	-0.000133081 	8.04423e-28
0.0388658 	-0.00029951 	-4.7032e-05 	9.80559e-28
0.0393126 	-0.000189718 	2.74558e-05 	7.82989e-28
0.0397593 	-8.23566e-05 	0.000101173 	5.60505e-28
0.040206 	7.83076e-06 	0.000166866 	3.58878e-28
0.0406528 	7.70271e-05 	0.000222751 	1.82741e-28
0.0410995 	0.000146223 	0.000278637 	6.60511e-30
0.0415462 	0.000181972 	0.000313505 	0
0.041993 	0.000216417 	0.000347554 	0
0.0424397 	0.00023691 	0.000370119 	0
0.0428864 	0.000241982 	0.000379991 	0
0.0433332 	0.000247054 	0.000389863 	0
0.0437799 	0.000230039 	0.000375637 	-7.49837e-30
0.0442266 	0.000212744 	0.000361107 	-1.50917e-29
0.0446734 	0.000188509 	0.000335331 	-3.61601e-29
0.0451201 	0.000157334 	0.000298311 	-7.07038e-29
0.0455668 	0.000126122 	0.000261048 	-1.04721e-28
0.0460136 	9.1971e-05 	0.000204653 	-9.71274e-29
0.0464603 	5.78197e-05 	0.000148258 	-8.95342e-29
0.046907 	3.29279e-05 	0.000100084 	-6.77919e-29
0.0473538 	1.64137e-05 	5.93486e-05 	-3.32483e-29
0.0478005 	5.08101e-07 	1.98369e-05 	4.65193e-32
0.0482472 	2.23056e-07 	1.17378e-05 	1.28703e-30
0.048694 	-6.19895e-08 	3.63863e-06 	2.52755e-30
0.0491407 	-2.05219e-07 	-3.65829e-09 	4.32269e-30
0.0495874 	-2.32417e-07 	5.46538e-10 	6.57163e-30
0.0500342 	-2.5814e-07 	4.62134e-09 	8.60247e-30
0.0504809 	-2.61733e-07 	6.74574e-09 	7.36196e-30
0.0509276 	-2.65326e-07 	8.87014e-09 	6.12144e-30
0.0513744 	-2.68584e-07 	1.02028e-08 	8.83928e-30
0.0518211 	-2.71594e-07 	1.09502e-08 	1.44829e-29
0.0522678 	-2.74545e-07 	1.16312e-08 	2.04362e-29
0.0527146 	-2.76885e-07 	1.16186e-08 	2.962e-29
0.0531613 	-2.79226e-07 	1.1606e-08 	3.88038e-29
0.053608 	-2.81232e-07 	1.13084e-08 	3.77418e-29
0.0540548 	-2.83016e-07 	1.08207e-08 	2.98493e-29
0.0545015 	-2.84749e-07 	1.0295e-08 	2.18115e-29
0.0549482 	-2.86081e-07 	9.46906e-09 	1.26277e-29
0.055395 	-2.87413e-07 	8.64307e-09 	3.44393e-30
0.0558417 	-2.88501e-07 	7.65459e-09 	0
0.0562884 	-2.89443e-07 	6.56861e-09 	0
0.0567352 	-2.90335e-07 	5.45444e-09 	0
0.0571819 	-2.90919e-07 	4.1634e-09 	0
0.0576286 	-2.91502e-07 	2.87237e-09 	0
0.0580754 	-2.91862e-07 	1.47633e-09 	0
0.0585221 	-2.92102e-07 	2.37592e-11 	0
0.0589688 	-2.92287e-07 	-1.44924e-09 	-2.60575e-30
0.0594156 	-2.92191e-07 	-3.02747e-09 	-1.86411e-29
0.0598623 	-2.92094e-07 	-4.6057e-09 	-3.46765e-29
0.060309 	-2.91773e-07 	-6.24887e-09 	-5.14538e-29
0.0607558 	-2.91344e-07 	-7.92331e-09 	-6.85883e-29
0.0612025 	-2.90853e-07 	-9.61136e-09 	-7.95034e-29
0.0616492 	-2.90094e-07 	-1.13584e-08 	-6.3468e-29
0.062096 	-2.89335e-07 	-1.31055e-08 	-4.74327e-29
0.0625427 	-2.88348e-07 	-1.48907e-08 	-3.06279e-29
0.0629894 	-2.87263e-07 	-1.66922e-08 	-1.34934e-29
0.0634362 	-2.86109e-07 	-1.85025e-08 	0
0.0638829 	-2.84701e-07 	-2.03453e-08 	0
0.0643296 	-2.83292e-07 	-2.21881e-08 	0
0.0647764 	-2.81652e-07 	-2.40543e-08 	0
0.0652231 	-2.79924e-07 	-2.59295e-08 	0
0.0656698 	-2.78121e-07 	-2.78112e-08 	-2.688e-30
0.0661166 	-2.76076e-07 	-2.97138e-08 	-1.40059e-29
0.0665633 	-2.74031e-07 	-3.16164e-08 	-2.53238e-29
0.0670101 	-2.7175e-07 	-3.35385e-08 	-3.70576e-29
0.0674568 	-2.69391e-07 	-3.54671e-08 	-4.89299e-29
0.0679035 	-2.6695e-07 	-3.74029e-08 	-5.47148e-29
0.0683503 	-2.64278e-07 	-3.93588e-08 	-4.33969e-29
0.068797 	-2.61607e-07 	-4.13148e-08 	-3.2079e-29
0.0692437 	-2.58694e-07 	-4.32953e-08 	-2.03314e-29
0.0696905 	-2.5571e-07 	-4.52829e-08 	-8.45906e-30
0.0701372 	-2.52637e-07 	-4.72816e-08 	0
0.0705839 	-2.49341e-07 	-4.93074e-08 	0
0.0710307 	-2.46045e-07 	-5.13333e-08 	0
0.0714774 	-2.42498e-07 	-5.3397e-08 	-1.12709e-29
0.0719241 	-2.38888e-07 	-5.54702e-08 	-2.53596e-29
0.0723709 	-2.35179e-07 	-5.75616e-08 	-3.96194e-29
0.0728176 	-2.31251e-07 	-5.96933e-08 	-5.42553e-29
0.0732643 	-2.27324e-07 	-6.1825e-08 	-6.88913e-29
0.0737111 	-2.2313e-07 	-6.40162e-08 	-5.98295e-29
0.0741578 	-2.1888e-07 	-6.62201e-08 	-4.57408e-29
0.0746045 	-2.14519e-07 	-6.84539e-08 	-3.14674e-29
0.0750513 	-2.0994e-07 	-7.07463e-08 	-1.68314e-29
0.075498 	-2.05361e-07 	-7.30387e-08 	-2.1954e-30
0.0759447 	-2.00496e-07 	-7.54226e-08 	0
0.0763915 	-1.9558e-07 	-7.78228e-08 	0
0.0768382 	-1.9054e-07 	-8.02702e-08 	0
0.0772849 	-1.85279e-07 	-8.28008e-08 	0
0.0777317 	-1.80018e-07 	-8.53313e-08 	0
0.0781784 	-1.74446e-07 	-8.79996e-08 	0
0.0786251 	-1.6883e-07 	-9.06876e-08 	0
0.0790719 	-1.63073e-07 	-9.34489e-08 	0
0.0795186 	-1.57092e-07 	-9.63263e-08 	0
0.0799653 	-1.51111e-07 	-9.92037e-08 	0
0.0804121 	-1.44794e-07 	-1.02286e-07 	0
0.0808588 	-1.38439e-07 	-1.05391e-07 	0
0.0813055 	-1.31928e-07 	-1.08609e-07 	0
0.0817523 	-1.25194e-07 	-1.11988e-07 	0
0.082199 	-1.1846e-07 	-1.15366e-07 	0
0.0826457 	-1.11374e-07 	-1.19049e-07 	0
0.0830925 	-1.04259e-07 	-1.22755e-07 	0
0.0835392 	-9.69823e-08 	-1.26633e-07 	0
0.0839859 	-8.94967e-08 	-1.30732e-07 	0
0.0844327 	-8.20111e-08 	-1.3483e-07 	0
0.0848794 	-7.41958e-08 	-1.3937e-07 	0
0.0853261 	-6.63632e-08 	-1.43933e-07 	0
0.0857729 	-5.83911e-08 	-1.48746e-07 	0
0.0862196 	-5.02569e-08 	-1.53851e-07 	0
0.0866663 	-4.21228e-08 	-1.58955e-07 	0
0.0871131 	-3.37654e-08 	-1.64656e-07 	0
0.0875598 	-2.54022e-08 	-1.70372e-07 	0
0.0880065 	-1.69778e-08 	-1.39338e-07 	0
0.0884533 	-8.48888e-09 	-6.96688e-08 	0
0.0889 	-2.65878e-22 	-2.55608e-21 	0
