# f_l  POINT_DATA 1223
#  x  y  z  f_l
0.0708004 0.00222 0.0025 0.5
0.0708004 0.00222 -0.0025 0.5
0.0708671 0.00111 0.0025 0.5
0.0708671 0.00111 -0.0025 0.5
0.0709003 0.001665 5.86374e-20 0.5
0.0708177 0.00333 0.0025 0.5
0.0708177 0.00333 -0.0025 0.5
0.0709037 0.00200397 -0.00152688 0.5
0.0709037 0.00200397 0.00152688 0.5
0.0709156 0.002775 1.79275e-19 0.5
0.0709121 0.00242763 0.00156475 0.5
0.0709121 0.00242763 -0.00156475 0.5
0.0709422 0.00128763 0.00169989 0.5
0.0709422 0.00128763 -0.00169989 0.5
0.0709037 0.00200397 0.0025 0.5
0.0709037 0.00200397 -0.0025 0.5
0.0709591 0.000949316 -0.0017762 0.5
0.0709591 0.000949316 0.0017762 0.5
0.0709121 0.00242763 0.0025 0.5
0.0709121 0.00242763 -0.0025 0.5
0.0709422 0.00128763 0.0025 0.5
0.0709422 0.00128763 -0.0025 0.5
0.0709192 0.00312943 -0.00159654 0.5
0.0709192 0.00312943 0.00159654 0.5
0.0709591 0.000949316 0.0025 0.5
0.0709591 0.000949316 -0.0025 0.5
0.0710093 0.000555 2.58892e-19 0.5
0.0708356 0.00444 0.0025 0.5
0.0708356 0.00444 -0.0025 0.5
0.0709237 0.00352612 0.00161658 0.5
0.0709237 0.00352612 -0.00161658 0.5
0.0709192 0.00312943 -0.0025 0.5
0.0709192 0.00312943 0.0025 0.5
0.0709274 0.003885 1.38695e-19 0.5
0.0709237 0.00352612 0.0025 0.5
0.0709237 0.00352612 -0.0025 0.5
0.0709322 0.00425242 -0.00165505 0.5
0.0709322 0.00425242 0.00165505 0.5
0.0709322 0.00425242 -0.0025 0.5
0.0709322 0.00425242 0.0025 0.5
0.0709355 0.00462433 0.00166968 0.5
0.0709355 0.00462433 -0.00166968 0.5
0.0709404 0.004995 2.40437e-19 0.5
0.0708557 0.00555 0.0025 0.5
0.0708557 0.00555 -0.0025 0.5
0.0709355 0.00462433 0.0025 0.5
0.0709355 0.00462433 -0.0025 0.5
0.0709457 0.00537587 -0.00171565 0.5
0.0709457 0.00537587 0.00171565 0.5
0.07112 0.000921962 -0.0025 0.5
0.07112 0.000921962 0.0025 0.5
0.0709457 0.00537587 0.0025 0.5
0.0709457 0.00537587 -0.0025 0.5
0.0709488 0.005721 0.00172975 0.5
0.0709488 0.005721 -0.00172975 0.5
0.0709542 0.006105 1.36811e-19 0.5
0.0709488 0.005721 0.0025 0.5
0.0709488 0.005721 -0.0025 0.5
0.0708782 0.00666 0.0025 0.5
0.0708782 0.00666 -0.0025 0.5
0.0709605 0.00650071 -0.00178249 0.5
0.0709605 0.00650071 0.00178249 0.5
0.0709605 0.00650071 0.0025 0.5
0.0709605 0.00650071 -0.0025 0.5
0.0709639 0.00681597 0.00179742 0.5
0.0709639 0.00681597 -0.00179742 0.5
0.0709639 0.00681597 0.0025 0.5
0.0709639 0.00681597 -0.0025 0.5
0.0709703 0.007215 1.18954e-19 0.5
0.070905 0.00777 -0.0025 0.5
0.070905 0.00777 0.0025 0.5
0.0709782 0.00762835 -0.00186195 0.5
0.0709782 0.00762835 0.00186195 0.5
0.0709782 0.00762835 0.0025 0.5
0.0709782 0.00762835 -0.0025 0.5
0.0709817 0.00790816 0.00187768 0.5
0.0709817 0.00790816 -0.00187768 0.5
0.0709817 0.00790816 0.0025 0.5
0.0709817 0.00790816 -0.0025 0.5
0.0709897 0.008325 1.73651e-19 0.5
0.0714376 0.00031721 0.0025 0.5
0.0714376 0.00031721 -0.0025 0.5
0.0709373 0.00888 0.0025 0.5
0.0709373 0.00888 -0.0025 0.5
0.0709995 0.00875964 -0.00195783 0.5
0.0709995 0.00875964 0.00195783 0.5
0.0709995 0.00875964 0.0025 0.5
0.0709995 0.00875964 -0.0025 0.5
0.071003 0.00899684 0.00197372 0.5
0.071003 0.00899684 -0.00197372 0.5
0.071003 0.00899684 0.0025 0.5
0.071003 0.00899684 -0.0025 0.5
0.071013 0.009435 -1.07682e-19 0.5
0.0716756 0.00031721 9.34784e-20 0.5
0.0709763 0.00999 0.0025 0.5
0.0709763 0.00999 -0.0025 0.5
0.0710252 0.00989534 -0.00207362 0.5
0.0710252 0.00989534 0.00207362 0.5
0.0710252 0.00989534 0.0025 0.5
0.0710252 0.00989534 -0.0025 0.5
0.0710285 0.0100814 0.00208841 0.5
0.0710285 0.0100814 -0.00208841 0.5
0.0710285 0.0100814 0.0025 0.5
0.0710285 0.0100814 -0.0025 0.5
0.071041 0.010545 1.79247e-19 0.5
0.0710232 0.0111 0.0025 0.5
0.0710232 0.0111 -0.0025 0.5
0.0710563 0.0110363 0.00221323 0.5
0.0710563 0.0110363 -0.00221323 0.5
0.0710563 0.0110363 0.0025 0.5
0.0710563 0.0110363 -0.0025 0.5
0.0719137 0.00031721 0.0025 0.5
0.0719137 0.00031721 -0.0025 0.5
0.0710589 0.0111611 0.0022249 0.5
0.0710589 0.0111611 -0.0022249 0.5
0.0710589 0.0111611 0.0025 0.5
0.0710589 0.0111611 -0.0025 0.5
0.0710745 0.011655 -2.86284e-19 0.5
0.0710797 0.01221 0.0025 0.5
0.0710797 0.01221 -0.0025 0.5
0.0710936 0.0121836 -0.00238109 0.5
0.0710936 0.0121836 0.00238109 0.5
0.0710936 0.0121836 0.0025 0.5
0.0710936 0.0121836 -0.0025 0.5
0.0710948 0.0122352 0.0023867 0.5
0.0710948 0.0122352 -0.0023867 0.5
0.0710948 0.0122352 0.0025 0.5
0.0710948 0.0122352 -0.0025 0.5
0.0711144 0.012765 3.51961e-19 0.5
0.0722313 0.000572931 -0.0025 0.5
0.0722313 0.000572931 0.0025 0.5
0.07112 0.0128762 -0.0025 0.5
0.07112 0.0128762 0.0025 0.5
0.0711367 0.0133033 -0.00242484 0.5
0.0711367 0.0133033 0.00242484 0.5
0.0711367 0.0133033 0.0025 0.5
0.0711367 0.0133033 -0.0025 0.5
0.0711387 0.0133387 -0.00241581 0.5
0.0711387 0.0133387 0.00241581 0.5
0.0711387 0.0133387 0.0025 0.5
0.0711387 0.0133387 -0.0025 0.5
0.0711472 0.01332 0.0025 0.5
0.0711472 0.01332 -0.0025 0.5
0.0711616 0.013875 -2.4987e-19 0.5
0.0725091 0.0002775 0.0025 0.5
0.0725091 0.0002775 -0.0025 0.5
0.0711839 0.0143662 -0.0022125 0.5
0.0711839 0.0143662 0.0022125 0.5
0.0711839 0.0143662 -0.0025 0.5
0.0711839 0.0143662 0.0025 0.5
0.0711928 0.0145027 0.00217235 0.5
0.0711928 0.0145027 -0.00217235 0.5
0.0711928 0.0145027 0.0025 0.5
0.0711928 0.0145027 -0.0025 0.5
0.0712193 0.01443 0.0025 0.5
0.0712193 0.01443 -0.0025 0.5
0.0712156 0.014985 5.56704e-19 0.5
0.0727869 0.0002775 1.145e-19 0.5
0.0712369 0.0154233 -0.00197413 0.5
0.0712369 0.0154233 0.00197413 0.5
0.0712369 0.0154233 0.0025 0.5
0.0712369 0.0154233 -0.0025 0.5
0.0712552 0.015675 -0.00189174 0.5
0.0712552 0.015675 0.00189174 0.5
0.0712552 0.015675 0.0025 0.5
0.0712552 0.015675 -0.0025 0.5
0.071292 0.01554 0.0025 0.5
0.071292 0.01554 -0.0025 0.5
0.0712766 0.016095 1.7403e-19 0.5
0.0730647 0.0002775 0.0025 0.5
0.0730647 0.0002775 -0.0025 0.5
0.0712961 0.0164741 -0.00170762 0.5
0.0712961 0.0164741 0.00170762 0.5
0.0712961 0.0164741 0.0025 0.5
0.0712961 0.0164741 -0.0025 0.5
0.0713254 0.0168551 -0.00157598 0.5
0.0713254 0.0168551 0.00157598 0.5
0.0713637 0.01665 0.0025 0.5
0.0713637 0.01665 -0.0025 0.5
0.0713254 0.0168551 0.0025 0.5
0.0713254 0.0168551 -0.0025 0.5
0.0733425 0.000555 -0.0025 0.5
0.0733425 0.000555 0.0025 0.5
0.0713443 0.017205 -2.79487e-20 0.5
0.0713619 0.0175184 -0.00141166 0.5
0.0713619 0.0175184 0.00141166 0.5
0.0713619 0.0175184 -0.0025 0.5
0.0713619 0.0175184 0.0025 0.5
0.0714347 0.01776 0.0025 0.5
0.0714347 0.01776 -0.0025 0.5
0.0736203 0.0002775 0.0025 0.5
0.0736203 0.0002775 -0.0025 0.5
0.0714067 0.0180464 0.0025 0.5
0.0714067 0.0180464 -0.0025 0.5
0.0714222 0.0183049 3.90548e-19 0.5
0.0714371 0.0185532 0.0025 0.5
0.0714371 0.0185532 -0.0025 0.5
0.0738981 0.0002775 1.12679e-19 0.5
0.0715054 0.01887 -0.0025 0.5
0.0715054 0.01887 0.0025 0.5
0.0715026 0.0192522 0.0025 0.5
0.0715026 0.0192522 -0.0025 0.5
0.0715134 0.019418 -4.3559e-19 0.5
0.0715237 0.0195767 0.0025 0.5
0.0715237 0.0195767 -0.0025 0.5
0.0741759 0.0002775 0.0025 0.5
0.0741759 0.0002775 -0.0025 0.5
0.0715755 0.01998 0.0025 0.5
0.0715755 0.01998 -0.0025 0.5
0.0744538 0.000555 -0.0025 0.5
0.0744538 0.000555 0.0025 0.5
0.0716249 0.0205729 3.12249e-20 0.5
0.0716168 0.0204762 0.0025 0.5
0.0716168 0.0204762 -0.0025 0.5
0.0716246 0.020586 0.0025 0.5
0.0716246 0.020586 -0.0025 0.5
0.0716444 0.02109 0.0025 0.5
0.0716444 0.02109 -0.0025 0.5
0.0747316 0.0002775 0.0025 0.5
0.0747316 0.0002775 -0.0025 0.5
0.071734 0.0216469 4.77176e-20 0.5
0.0717312 0.0215895 -0.0025 0.5
0.0717312 0.0215895 0.0025 0.5
0.0717368 0.0217061 -0.0025 0.5
0.0717368 0.0217061 0.0025 0.5
0.0750094 0.0002775 1.14375e-19 0.5
0.0717119 0.0222 0.0025 0.5
0.0717119 0.0222 -0.0025 0.5
0.0752872 0.0002775 0.0025 0.5
0.0752872 0.0002775 -0.0025 0.5
0.0718207 0.0226101 0.0025 0.5
0.0718207 0.0226101 -0.0025 0.5
0.0718273 0.0227595 -3.0362e-21 0.5
0.0718342 0.0229134 0.0025 0.5
0.0718342 0.0229134 -0.0025 0.5
0.0717775 0.02331 0.0025 0.5
0.0717775 0.02331 -0.0025 0.5
0.075565 0.000555 -0.0025 0.5
0.075565 0.000555 0.0025 0.5
0.0718962 0.0236446 0.0025 0.5
0.0718962 0.0236446 -0.0025 0.5
0.0719054 0.0238712 3.75339e-19 0.5
0.0758428 0.0002775 0.0025 0.5
0.0758428 0.0002775 -0.0025 0.5
0.0719149 0.024104 -0.0025 0.5
0.0719149 0.024104 0.0025 0.5
0.0718406 0.02442 0.0025 0.5
0.0718406 0.02442 -0.0025 0.5
0.0719606 0.0246904 0.00128216 0.5
0.0719606 0.0246904 -0.00128216 0.5
0.0719606 0.0246904 -0.0025 0.5
0.0719606 0.0246904 0.0025 0.5
0.0761206 0.0002775 1.14623e-19 0.5
0.0719713 0.024975 1.44638e-18 0.5
0.0719826 0.0252816 -0.00138104 0.5
0.0719826 0.0252816 0.00138104 0.5
0.0719826 0.0252816 0.0025 0.5
0.0719826 0.0252816 -0.0025 0.5
0.0719012 0.02553 0.0025 0.5
0.0719012 0.02553 -0.0025 0.5
0.0763984 0.0002775 0.0025 0.5
0.0763984 0.0002775 -0.0025 0.5
0.0720155 0.0257455 -0.00152946 0.5
0.0720155 0.0257455 0.00152946 0.5
0.0720155 0.0257455 -0.0025 0.5
0.0720155 0.0257455 0.0025 0.5
0.0720272 0.026085 -1.21763e-18 0.5
0.0766763 0.000555 -0.0025 0.5
0.0766763 0.000555 0.0025 0.5
0.0720392 0.0264482 -0.00163591 0.5
0.0720392 0.0264482 0.00163591 0.5
0.0719584 0.02664 0.0025 0.5
0.0719584 0.02664 -0.0025 0.5
0.0720392 0.0264482 -0.0025 0.5
0.0720392 0.0264482 0.0025 0.5
0.0720623 0.0268088 -0.00173971 0.5
0.0720623 0.0268088 0.00173971 0.5
0.0720623 0.0268088 -0.0025 0.5
0.0720623 0.0268088 0.0025 0.5
0.0769541 0.0002775 0.0025 0.5
0.0769541 0.0002775 -0.0025 0.5
0.0720742 0.027195 -3.10788e-19 0.5
0.0720858 0.0276047 0.00184569 0.5
0.0720858 0.0276047 -0.00184569 0.5
0.0720107 0.02775 0.0025 0.5
0.0720107 0.02775 -0.0025 0.5
0.0720858 0.0276047 0.0025 0.5
0.0720858 0.0276047 -0.0025 0.5
0.0772319 0.0002775 1.08196e-19 0.5
0.072101 0.0278801 0.00191382 0.5
0.072101 0.0278801 -0.00191382 0.5
0.072101 0.0278801 0.0025 0.5
0.072101 0.0278801 -0.0025 0.5
0.0721123 0.028305 6.21879e-19 0.5
0.0775097 0.0002775 0.0025 0.5
0.0775097 0.0002775 -0.0025 0.5
0.0720557 0.02886 0.0025 0.5
0.0720557 0.02886 -0.0025 0.5
0.0721223 0.0287512 -0.0020097 0.5
0.0721223 0.0287512 0.0020097 0.5
0.0721223 0.0287512 0.0025 0.5
0.0721223 0.0287512 -0.0025 0.5
0.0721314 0.0289598 0.00205063 0.5
0.0721314 0.0289598 -0.00205063 0.5
0.0721314 0.0289598 0.0025 0.5
0.0721314 0.0289598 -0.0025 0.5
0.0777875 0.000555 -0.0025 0.5
0.0777875 0.000555 0.0025 0.5
0.0721411 0.029415 -4.45899e-19 0.5
0.0780653 0.0002775 0.0025 0.5
0.0780653 0.0002775 -0.0025 0.5
0.0721195 0.02997 0.0025 0.5
0.0721195 0.02997 -0.0025 0.5
0.0721649 0.0299038 -0.00220167 0.5
0.0721649 0.0299038 0.00220167 0.5
0.0721649 0.0299038 0.0025 0.5
0.0721649 0.0299038 -0.0025 0.5
0.0721689 0.0300323 0.00221927 0.5
0.0721689 0.0300323 -0.00221927 0.5
0.0721689 0.0300323 0.0025 0.5
0.0721689 0.0300323 -0.0025 0.5
0.0783431 0.0002775 8.26565e-20 0.5
0.0721939 0.030525 6.90397e-19 0.5
0.0722002 0.03108 0.0025 0.5
0.0722002 0.03108 -0.0025 0.5
0.0722134 0.0310622 0.00241968 0.5
0.0722134 0.0310622 -0.00241968 0.5
0.0722134 0.0310622 0.0025 0.5
0.0722134 0.0310622 -0.0025 0.5
0.0786209 0.0002775 0.0025 0.5
0.0786209 0.0002775 -0.0025 0.5
0.072214 0.0310972 0.00242236 0.5
0.072214 0.0310972 -0.00242236 0.5
0.072214 0.0310972 0.0025 0.5
0.072214 0.0310972 -0.0025 0.5
0.0722313 0.0312981 -0.0025 0.5
0.0722313 0.0312981 0.0025 0.5
0.0722344 0.031635 2.21844e-19 0.5
0.0788988 0.000555 -0.0025 0.5
0.0788988 0.000555 0.0025 0.5
0.0722963 0.032125 -0.00220743 0.5
0.0722963 0.032125 0.00220743 0.5
0.0722963 0.032125 0.0025 0.5
0.0722963 0.032125 -0.0025 0.5
0.0791766 0.0002775 0.0025 0.5
0.0791766 0.0002775 -0.0025 0.5
0.0723594 0.03219 0.0025 0.5
0.0723594 0.03219 -0.0025 0.5
0.0723409 0.0322995 -0.00200659 0.5
0.0723409 0.0322995 0.00200659 0.5
0.0723409 0.0322995 0.0025 0.5
0.0723409 0.0322995 -0.0025 0.5
0.0794544 0.0002775 9.54222e-20 0.5
0.0724118 0.032745 2.72191e-19 0.5
0.0724246 0.0331069 0.00163007 0.5
0.0724246 0.0331069 -0.00163007 0.5
0.0724246 0.0331069 0.0025 0.5
0.0724246 0.0331069 -0.0025 0.5
0.0797322 0.0002775 0.0025 0.5
0.0797322 0.0002775 -0.0025 0.5
0.0725052 0.0333 0.0025 0.5
0.0725052 0.0333 -0.0025 0.5
0.0724484 0.0335169 -0.00152291 0.5
0.0724484 0.0335169 0.00152291 0.5
0.0724484 0.0335169 0.0025 0.5
0.0724484 0.0335169 -0.0025 0.5
0.0724609 0.033855 1.44185e-19 0.5
0.08001 0.000555 -0.0025 0.5
0.08001 0.000555 0.0025 0.5
0.0724368 0.0342047 -0.00157507 0.5
0.0724368 0.0342047 0.00157507 0.5
0.0724368 0.0342047 0.0025 0.5
0.0724368 0.0342047 -0.0025 0.5
0.0723879 0.0345664 -0.0017953 0.5
0.0723879 0.0345664 0.0017953 0.5
0.0723879 0.0345664 0.0025 0.5
0.0723879 0.0345664 -0.0025 0.5
0.0724802 0.03441 0.0025 0.5
0.0724802 0.03441 -0.0025 0.5
0.0802878 0.0002775 0.0025 0.5
0.0802878 0.0002775 -0.0025 0.5
0.0723641 0.034965 2.53078e-19 0.5
0.0805656 0.0002775 1.15842e-19 0.5
0.0723821 0.0353693 -0.00182112 0.5
0.0723821 0.0353693 0.00182112 0.5
0.0723821 0.0353693 -0.0025 0.5
0.0723821 0.0353693 0.0025 0.5
0.0724653 0.03552 0.0025 0.5
0.0724653 0.03552 -0.0025 0.5
0.0724051 0.0356936 -0.00171792 0.5
0.0724051 0.0356936 0.00171792 0.5
0.0724051 0.0356936 0.0025 0.5
0.0724051 0.0356936 -0.0025 0.5
0.0808434 0.0002775 0.0025 0.5
0.0808434 0.0002775 -0.0025 0.5
0.072423 0.036075 1.46018e-19 0.5
0.0724347 0.0364268 -0.00158465 0.5
0.0724347 0.0364268 0.00158465 0.5
0.0724347 0.0364268 0.0025 0.5
0.0724347 0.0364268 -0.0025 0.5
0.0811213 0.000555 -0.0025 0.5
0.0811213 0.000555 0.0025 0.5
0.0725246 0.03663 0.0025 0.5
0.0725246 0.03663 -0.0025 0.5
0.072458 0.0368565 -0.00147978 0.5
0.072458 0.0368565 0.00147978 0.5
0.072458 0.0368565 0.0025 0.5
0.072458 0.0368565 -0.0025 0.5
0.0813991 0.0002775 0.0025 0.5
0.0813991 0.0002775 -0.0025 0.5
0.0724694 0.037185 1.51726e-18 0.5
0.0724778 0.0374937 -0.00139055 0.5
0.0724778 0.0374937 0.00139055 0.5
0.0724778 0.0374937 0.0025 0.5
0.0724778 0.0374937 -0.0025 0.5
0.0816769 0.0002775 9.5745e-20 0.5
0.072568 0.03774 -0.0025 0.5
0.072568 0.03774 0.0025 0.5
0.0725014 0.0380098 0.00128448 0.5
0.0725014 0.0380098 -0.00128448 0.5
0.0725014 0.0380098 0.0025 0.5
0.0725014 0.0380098 -0.0025 0.5
0.0819547 0.0002775 0.0025 0.5
0.0819547 0.0002775 -0.0025 0.5
0.0725136 0.0384756 -1.5483e-18 0.5
0.0725157 0.0385659 0.0025 0.5
0.0725157 0.0385659 -0.0025 0.5
0.0822325 0.000555 -0.0025 0.5
0.0822325 0.000555 0.0025 0.5
0.0726023 0.03885 0.0025 0.5
0.0726023 0.03885 -0.0025 0.5
0.0725383 0.0391568 0.0025 0.5
0.0725383 0.0391568 -0.0025 0.5
0.0825103 0.0002775 0.0025 0.5
0.0825103 0.0002775 -0.0025 0.5
0.0725437 0.0394016 1.18551e-18 0.5
0.0725485 0.0396431 0.0025 0.5
0.0725485 0.0396431 -0.0025 0.5
0.0827881 0.0002775 8.32524e-20 0.5
0.0726293 0.03996 0.0025 0.5
0.0726293 0.03996 -0.0025 0.5
0.0725689 0.0402972 -0.0025 0.5
0.0725689 0.0402972 0.0025 0.5
0.0830659 0.0002775 0.0025 0.5
0.0830659 0.0002775 -0.0025 0.5
0.0725726 0.0405127 6.16777e-20 0.5
0.0725759 0.0407257 0.0025 0.5
0.0725759 0.0407257 -0.0025 0.5
0.0833437 0.000555 -0.0025 0.5
0.0833437 0.000555 0.0025 0.5
0.0726498 0.04107 -0.0025 0.5
0.0726498 0.04107 0.0025 0.5
0.0725923 0.0414307 0.0025 0.5
0.0725923 0.0414307 -0.0025 0.5
0.0836216 0.0002775 0.0025 0.5
0.0836216 0.0002775 -0.0025 0.5
0.0725947 0.0416235 -1.63795e-18 0.5
0.0725968 0.0418149 0.0025 0.5
0.0725968 0.0418149 -0.0025 0.5
0.0838994 0.0002775 3.228e-22 0.5
0.0726639 0.04218 0.0025 0.5
0.0726639 0.04218 -0.0025 0.5
0.072608 0.0425563 0.0025 0.5
0.072608 0.0425563 -0.0025 0.5
0.0841772 0.0002775 0.0025 0.5
0.0841772 0.0002775 -0.0025 0.5
0.0726093 0.0427342 1.94814e-18 0.5
0.0726103 0.0429113 0.0025 0.5
0.0726103 0.0429113 -0.0025 0.5
0.084455 0.000555 -0.0025 0.5
0.084455 0.000555 0.0025 0.5
0.0726718 0.04329 0.0025 0.5
0.0726718 0.04329 -0.0025 0.5
0.0847328 0.0002775 0.0025 0.5
0.0847328 0.0002775 -0.0025 0.5
0.0726154 0.0436737 0.0025 0.5
0.0726154 0.0436737 -0.0025 0.5
0.0726158 0.0438448 -6.93041e-19 0.5
0.0726159 0.0440158 0.0025 0.5
0.0726159 0.0440158 -0.0025 0.5
0.0850106 0.0002775 0 0.5
0.0726737 0.0444 -0.0025 0.5
0.0726737 0.0444 0.0025 0.5
0.0852884 0.0002775 0.0025 0.5
0.0852884 0.0002775 -0.0025 0.5
0.0726145 0.0447828 0.0025 0.5
0.0726145 0.0447828 -0.0025 0.5
0.072614 0.0449554 1.08733e-18 0.5
0.0726133 0.0451284 0.0025 0.5
0.0726133 0.0451284 -0.0025 0.5
0.0855663 0.000555 -0.0025 0.5
0.0855663 0.000555 0.0025 0.5
0.0726695 0.04551 0.0025 0.5
0.0726695 0.04551 -0.0025 0.5
0.0858441 0.0002775 0.0025 0.5
0.0858441 0.0002775 -0.0025 0.5
0.0726056 0.0458839 0.0025 0.5
0.0726056 0.0458839 -0.0025 0.5
0.0726042 0.046066 -1.6522e-18 0.5
0.0726026 0.0462491 0.0025 0.5
0.0726026 0.0462491 -0.0025 0.5
0.0861219 0.0002775 0 0.5
0.0726595 0.04662 0.0025 0.5
0.0726595 0.04662 -0.0025 0.5
0.0863997 0.0002775 0.0025 0.5
0.0863997 0.0002775 -0.0025 0.5
0.0725895 0.0469778 0.0025 0.5
0.0725895 0.0469778 -0.0025 0.5
0.0725871 0.0471767 2.12301e-18 0.5
0.0725844 0.0473772 0.0025 0.5
0.0725844 0.0473772 -0.0025 0.5
0.0866775 0.000555 -0.0025 0.5
0.0866775 0.000555 0.0025 0.5
0.0726438 0.04773 -0.0025 0.5
0.0726438 0.04773 0.0025 0.5
0.0869553 0.0002775 0.0025 0.5
0.0869553 0.0002775 -0.0025 0.5
0.0725673 0.0480657 0.0025 0.5
0.0725673 0.0480657 -0.0025 0.5
0.0725638 0.0482875 1.36506e-19 0.5
0.0872331 0.0002775 0 0.5
0.07256 0.0485116 0.0025 0.5
0.07256 0.0485116 -0.0025 0.5
0.0875109 0.0002775 0.0025 0.5
0.0875109 0.0002775 -0.0025 0.5
0.0726229 0.04884 0.0025 0.5
0.0726229 0.04884 -0.0025 0.5
0.0725404 0.0491488 0.0025 0.5
0.0725404 0.0491488 -0.0025 0.5
0.0725356 0.0493983 1.2633e-19 0.5
0.0877888 0.000555 -0.0025 0.5
0.0877888 0.000555 0.0025 0.5
0.0725305 0.0496511 0.0025 0.5
0.0725305 0.0496511 -0.0025 0.5
0.0880666 0.0002775 -0.00125 0.5
0.0880666 0.0002775 0.00125 0.5
0.0880666 0.0002775 0.0025 0.5
0.0880666 0.0002775 -0.0025 0.5
0.0725971 0.04995 0.0025 0.5
0.0725971 0.04995 -0.0025 0.5
0.0725101 0.0502285 -0.0025 0.5
0.0725101 0.0502285 0.0025 0.5
0.0725082 0.0503207 2.03335e-18 0.5
0.0883444 0.0002775 0 0.5
0.0883444 0.00111 0.0025 0.5
0.0883444 0.00111 -0.0025 0.5
0.0883444 0.00222 0.0025 0.5
0.0883444 0.00222 -0.0025 0.5
0.0883444 0.00333 0.0025 0.5
0.0883444 0.00333 -0.0025 0.5
0.0883444 0.00444 0.0025 0.5
0.0883444 0.00444 -0.0025 0.5
0.0724975 0.0507941 -0.00130205 0.5
0.0724975 0.0507941 0.00130205 0.5
0.0883444 0.00555 0.0025 0.5
0.0883444 0.00555 -0.0025 0.5
0.0724975 0.0507941 0.0025 0.5
0.0724975 0.0507941 -0.0025 0.5
0.0886222 0.000555 0 0.5
0.0883444 0.00666 0.0025 0.5
0.0883444 0.00666 -0.0025 0.5
0.0886222 0.0002775 -0.00125 0.5
0.0886222 0.0002775 0.00125 0.5
0.0886222 0.0008325 0.00125 0.5
0.0886222 0.0008325 -0.00125 0.5
0.0886222 0.001665 0 0.5
0.0886222 0.0002775 0.0025 0.5
0.0886222 0.0002775 -0.0025 0.5
0.0886222 0.0008325 0.0025 0.5
0.0886222 0.0008325 -0.0025 0.5
0.0886222 0.002775 0 0.5
0.0886222 0.0013875 0.0025 0.5
0.0886222 0.0013875 -0.0025 0.5
0.0886222 0.0019425 0.0025 0.5
0.0886222 0.0019425 -0.0025 0.5
0.0886222 0.0024975 0.0025 0.5
0.0886222 0.0024975 -0.0025 0.5
0.0886222 0.003885 0 0.5
0.0886222 0.0030525 0.0025 0.5
0.0886222 0.0030525 -0.0025 0.5
0.0883444 0.00777 0.0025 0.5
0.0883444 0.00777 -0.0025 0.5
0.0886222 0.0036075 0.0025 0.5
0.0886222 0.0036075 -0.0025 0.5
0.0886222 0.0041625 0.0025 0.5
0.0886222 0.0041625 -0.0025 0.5
0.0886222 0.004995 -1.81603e-19 0.5
0.072567 0.05106 -0.0025 0.5
0.072567 0.05106 0.0025 0.5
0.0886222 0.0047175 0.0025 0.5
0.0886222 0.0047175 -0.0025 0.5
0.0724777 0.0513062 -0.00139104 0.5
0.0724777 0.0513062 0.00139104 0.5
0.0886222 0.0052725 0.0025 0.5
0.0886222 0.0052725 -0.0025 0.5
0.0883444 0.00888 0.0025 0.5
0.0883444 0.00888 -0.0025 0.5
0.0886222 0.006105 -4.31797e-21 0.5
0.0724777 0.0513062 -0.0025 0.5
0.0724777 0.0513062 0.0025 0.5
0.0886222 0.0058275 0.0025 0.5
0.0886222 0.0058275 -0.0025 0.5
0.0886222 0.0063825 0.0025 0.5
0.0886222 0.0063825 -0.0025 0.5
0.0886222 0.007215 3.76366e-21 0.5
0.0886222 0.0069375 -0.0025 0.5
0.0886222 0.0069375 0.0025 0.5
0.0883444 0.00999 0.0025 0.5
0.0883444 0.00999 -0.0025 0.5
0.0724706 0.051615 -3.25948e-18 0.5
0.0886222 0.0074925 -0.0025 0.5
0.0886222 0.0074925 0.0025 0.5
0.0886222 0.008325 1.10296e-21 0.5
0.0886222 0.0080475 -0.0025 0.5
0.0886222 0.0080475 0.0025 0.5
0.0886222 0.0086025 -0.0025 0.5
0.0886222 0.0086025 0.0025 0.5
0.0883444 0.0111 0.0025 0.5
0.0883444 0.0111 -0.0025 0.5
0.0886222 0.009435 1.92878e-21 0.5
0.0886222 0.0091575 0.0025 0.5
0.0886222 0.0091575 -0.0025 0.5
0.0724625 0.051939 -0.00145961 0.5
0.0724625 0.051939 0.00145961 0.5
0.0886222 0.0097125 0.0025 0.5
0.0886222 0.0097125 -0.0025 0.5
0.0724625 0.051939 0.0025 0.5
0.0724625 0.051939 -0.0025 0.5
0.0883444 0.01221 0.0025 0.5
0.0883444 0.01221 -0.0025 0.5
0.0886222 0.010545 3.88923e-21 0.5
0.0886222 0.0102675 0.0025 0.5
0.0886222 0.0102675 -0.0025 0.5
0.0886222 0.0108225 0.0025 0.5
0.0886222 0.0108225 -0.0025 0.5
0.0883444 0.01332 0.0025 0.5
0.0883444 0.01332 -0.0025 0.5
0.0725332 0.05217 0.0025 0.5
0.0725332 0.05217 -0.0025 0.5
0.0886222 0.0113775 0.0025 0.5
0.0886222 0.0113775 -0.0025 0.5
0.0886222 0.011655 2.78619e-21 0.5
0.0724445 0.0523831 -0.00154029 0.5
0.0724445 0.0523831 0.00154029 0.5
0.0724445 0.0523831 0.0025 0.5
0.0724445 0.0523831 -0.0025 0.5
0.0886222 0.0119325 0.0025 0.5
0.0886222 0.0119325 -0.0025 0.5
0.0886222 0.0124875 -0.0025 0.5
0.0886222 0.0124875 0.0025 0.5
0.0886222 0.012765 1.81655e-19 0.5
0.0883444 0.01443 0.0025 0.5
0.0883444 0.01443 -0.0025 0.5
0.0724362 0.052725 1.18584e-18 0.5
0.0886222 0.0130425 -0.0025 0.5
0.0886222 0.0130425 0.0025 0.5
0.0886222 0.0135975 0.0025 0.5
0.0886222 0.0135975 -0.0025 0.5
0.0886222 0.013875 0 0.5
0.0883444 0.01554 0.0025 0.5
0.0883444 0.01554 -0.0025 0.5
0.0886222 0.0141525 0.0025 0.5
0.0886222 0.0141525 -0.0025 0.5
0.072427 0.0530845 -0.00161945 0.5
0.072427 0.0530845 0.00161945 0.5
0.072427 0.0530845 -0.0025 0.5
0.072427 0.0530845 0.0025 0.5
0.0886222 0.0147075 -0.0025 0.5
0.0886222 0.0147075 0.0025 0.5
0.0886222 0.014985 7.52748e-21 0.5
0.0883444 0.01665 0.0025 0.5
0.0883444 0.01665 -0.0025 0.5
0.0886222 0.0152625 -0.0025 0.5
0.0886222 0.0152625 0.0025 0.5
0.0724965 0.05328 0.0025 0.5
0.0724965 0.05328 -0.0025 0.5
0.0724117 0.0534602 -0.00168826 0.5
0.0724117 0.0534602 0.00168826 0.5
0.0724117 0.0534602 0.0025 0.5
0.0724117 0.0534602 -0.0025 0.5
0.0886222 0.0158175 0.0025 0.5
0.0886222 0.0158175 -0.0025 0.5
0.0886222 0.016095 0 0.5
0.0883444 0.01776 0.0025 0.5
0.0883444 0.01776 -0.0025 0.5
0.0886222 0.0163725 0.0025 0.5
0.0886222 0.0163725 -0.0025 0.5
0.0724023 0.053835 2.84143e-18 0.5
0.0886222 0.0169275 0.0025 0.5
0.0886222 0.0169275 -0.0025 0.5
0.0886222 0.017205 0 0.5
0.0886222 0.0174825 0.0025 0.5
0.0886222 0.0174825 -0.0025 0.5
0.0883444 0.01887 0.0025 0.5
0.0883444 0.01887 -0.0025 0.5
0.0723922 0.0542293 -0.00177594 0.5
0.0723922 0.0542293 0.00177594 0.5
0.0886222 0.0180375 0.0025 0.5
0.0886222 0.0180375 -0.0025 0.5
0.0723922 0.0542293 0.0025 0.5
0.0723922 0.0542293 -0.0025 0.5
0.0886222 0.018315 -4.24739e-19 0.5
0.0886222 0.0185925 0.0025 0.5
0.0886222 0.0185925 -0.0025 0.5
0.0883444 0.01998 0.0025 0.5
0.0883444 0.01998 -0.0025 0.5
0.0724578 0.05439 0.0025 0.5
0.0724578 0.05439 -0.0025 0.5
0.0723798 0.0545384 0.00183139 0.5
0.0723798 0.0545384 -0.00183139 0.5
0.0723798 0.0545384 0.0025 0.5
0.0723798 0.0545384 -0.0025 0.5
0.0886222 0.0191475 0.0025 0.5
0.0886222 0.0191475 -0.0025 0.5
0.0886222 0.019425 2.54579e-19 0.5
0.0886222 0.0197025 0.0025 0.5
0.0886222 0.0197025 -0.0025 0.5
0.0883444 0.02109 0.0025 0.5
0.0883444 0.02109 -0.0025 0.5
0.0723697 0.054945 -4.08125e-18 0.5
0.0886222 0.0202575 0.0025 0.5
0.0886222 0.0202575 -0.0025 0.5
0.0886222 0.020535 -4.2863e-21 0.5
0.0886222 0.0208125 0.0025 0.5
0.0886222 0.0208125 -0.0025 0.5
0.0883444 0.0222 0.0025 0.5
0.0883444 0.0222 -0.0025 0.5
0.0723591 0.0553723 -0.00192468 0.5
0.0723591 0.0553723 0.00192468 0.5
0.0723591 0.0553723 0.0025 0.5
0.0723591 0.0553723 -0.0025 0.5
0.0886222 0.0213675 0.0025 0.5
0.0886222 0.0213675 -0.0025 0.5
0.0886222 0.021645 -2.44648e-21 0.5
0.0724183 0.0555 0.0025 0.5
0.0724183 0.0555 -0.0025 0.5
0.0723498 0.0556184 -0.0019665 0.5
0.0723498 0.0556184 0.0019665 0.5
0.0723498 0.0556184 0.0025 0.5
0.0723498 0.0556184 -0.0025 0.5
0.0886222 0.0219225 0.0025 0.5
0.0886222 0.0219225 -0.0025 0.5
0.0883444 0.02331 0.0025 0.5
0.0883444 0.02331 -0.0025 0.5
0.0886222 0.0224775 0.0025 0.5
0.0886222 0.0224775 -0.0025 0.5
0.0886222 0.022755 -2.49561e-19 0.5
0.0723393 0.056055 2.94236e-18 0.5
0.0886222 0.0230325 0.0025 0.5
0.0886222 0.0230325 -0.0025 0.5
0.0883444 0.02442 0.0025 0.5
0.0883444 0.02442 -0.0025 0.5
0.0886222 0.0235875 0.0025 0.5
0.0886222 0.0235875 -0.0025 0.5
0.0886222 0.023865 4.33092e-19 0.5
0.0723287 0.0565126 -0.00206144 0.5
0.0723287 0.0565126 0.00206144 0.5
0.0723287 0.0565126 0.0025 0.5
0.0723287 0.0565126 -0.0025 0.5
0.0886222 0.0241425 0.0025 0.5
0.0886222 0.0241425 -0.0025 0.5
0.0723792 0.05661 -0.0025 0.5
0.0723792 0.05661 0.0025 0.5
0.0723222 0.0567008 -0.0020908 0.5
0.0723222 0.0567008 0.0020908 0.5
0.0723222 0.0567008 0.0025 0.5
0.0723222 0.0567008 -0.0025 0.5
0.0883444 0.02553 0.0025 0.5
0.0883444 0.02553 -0.0025 0.5
0.0886222 0.0246975 -0.0025 0.5
0.0886222 0.0246975 0.0025 0.5
0.0886222 0.024975 1.19177e-21 0.5
0.0723117 0.057165 -1.22511e-18 0.5
0.0886222 0.0252525 0.0025 0.5
0.0886222 0.0252525 -0.0025 0.5
0.0883444 0.02664 0.0025 0.5
0.0883444 0.02664 -0.0025 0.5
0.0886222 0.0258075 0.0025 0.5
0.0886222 0.0258075 -0.0025 0.5
0.0886222 0.026085 9.22105e-21 0.5
0.0886222 0.0263625 0.0025 0.5
0.0886222 0.0263625 -0.0025 0.5
0.0723016 0.0576497 0.00218328 0.5
0.0723016 0.0576497 -0.00218328 0.5
0.0723016 0.0576497 0.0025 0.5
0.0723016 0.0576497 -0.0025 0.5
0.0722974 0.0577861 -0.00220229 0.5
0.0722974 0.0577861 0.00220229 0.5
0.0723418 0.05772 0.0025 0.5
0.0723418 0.05772 -0.0025 0.5
0.0722974 0.0577861 -0.0025 0.5
0.0722974 0.0577861 0.0025 0.5
0.0883444 0.02775 0.0025 0.5
0.0883444 0.02775 -0.0025 0.5
0.0886222 0.0269175 0.0025 0.5
0.0886222 0.0269175 -0.0025 0.5
0.0886222 0.027195 1.2044e-20 0.5
0.0886222 0.0274725 0.0025 0.5
0.0886222 0.0274725 -0.0025 0.5
0.0722874 0.058275 1.42807e-18 0.5
0.0883444 0.02886 0.0025 0.5
0.0883444 0.02886 -0.0025 0.5
0.0886222 0.0280275 0.0025 0.5
0.0886222 0.0280275 -0.0025 0.5
0.0886222 0.028305 -8.22717e-21 0.5
0.0886222 0.0285825 0.0025 0.5
0.0886222 0.0285825 -0.0025 0.5
0.0722782 0.0587831 -0.00228874 0.5
0.0722782 0.0587831 0.00228874 0.5
0.0722782 0.0587831 -0.0025 0.5
0.0722782 0.0587831 0.0025 0.5
0.0722757 0.0588744 0.00229978 0.5
0.0722757 0.0588744 -0.00229978 0.5
0.0723074 0.05883 0.0025 0.5
0.0723074 0.05883 -0.0025 0.5
0.0722757 0.0588744 0.0025 0.5
0.0722757 0.0588744 -0.0025 0.5
0.0886222 0.0291375 0.0025 0.5
0.0886222 0.0291375 -0.0025 0.5
0.0883444 0.02997 0.0025 0.5
0.0883444 0.02997 -0.0025 0.5
0.0886222 0.029415 -6.85063e-19 0.5
0.0886222 0.0296925 0.0025 0.5
0.0886222 0.0296925 -0.0025 0.5
0.0722666 0.059385 1.32424e-19 0.5
0.0886222 0.0302475 0.0025 0.5
0.0886222 0.0302475 -0.0025 0.5
0.0883444 0.03108 0.0025 0.5
0.0883444 0.03108 -0.0025 0.5
0.0886222 0.030525 6.22217e-19 0.5
0.0886222 0.0308025 0.0025 0.5
0.0886222 0.0308025 -0.0025 0.5
0.0722585 0.0599128 -0.00237748 0.5
0.0722585 0.0599128 0.00237748 0.5
0.0722585 0.0599128 -0.0025 0.5
0.0722585 0.0599128 0.0025 0.5
0.0722573 0.059966 -0.00238289 0.5
0.0722573 0.059966 0.00238289 0.5
0.0722766 0.05994 -0.0025 0.5
0.0722766 0.05994 0.0025 0.5
0.0722573 0.059966 -0.0025 0.5
0.0722573 0.059966 0.0025 0.5
0.0886222 0.0313575 0.0025 0.5
0.0886222 0.0313575 -0.0025 0.5
0.0883444 0.03219 0.0025 0.5
0.0883444 0.03219 -0.0025 0.5
0.0886222 0.031635 -3.88923e-21 0.5
0.0886222 0.0319125 0.0025 0.5
0.0886222 0.0319125 -0.0025 0.5
0.0722492 0.060495 -2.37392e-18 0.5
0.0886222 0.0324675 0.0025 0.5
0.0886222 0.0324675 -0.0025 0.5
0.0883444 0.0333 0.0025 0.5
0.0883444 0.0333 -0.0025 0.5
0.0886222 0.032745 0 0.5
0.0886222 0.0330225 0.0025 0.5
0.0886222 0.0330225 -0.0025 0.5
0.0722423 0.0610389 0.00245022 0.5
0.0722423 0.0610389 -0.00245022 0.5
0.0722423 0.0610389 0.0025 0.5
0.0722423 0.0610389 -0.0025 0.5
0.0722419 0.0610606 0.00245204 0.5
0.0722419 0.0610606 -0.00245204 0.5
0.0722501 0.06105 0.0025 0.5
0.0722501 0.06105 -0.0025 0.5
0.0722419 0.0610606 0.0025 0.5
0.0722419 0.0610606 -0.0025 0.5
0.0886222 0.0335775 0.0025 0.5
0.0886222 0.0335775 -0.0025 0.5
0.0883444 0.03441 0.0025 0.5
0.0883444 0.03441 -0.0025 0.5
0.0886222 0.033855 0 0.5
0.0722351 0.061605 1.51004e-18 0.5
0.0886222 0.0341325 0.0025 0.5
0.0886222 0.0341325 -0.0025 0.5
0.0886222 0.0346875 0.0025 0.5
0.0886222 0.0346875 -0.0025 0.5
0.0722313 0.0619838 0.0025 0.5
0.0722313 0.0619838 -0.0025 0.5
0.0883444 0.03552 0.0025 0.5
0.0883444 0.03552 -0.0025 0.5
0.0886222 0.034965 -3.39789e-22 0.5
0.0722292 0.062158 -0.00249093 0.5
0.0722292 0.062158 0.00249093 0.5
0.0722292 0.062158 0.0025 0.5
0.0722292 0.062158 -0.0025 0.5
0.0722277 0.06216 0.0025 0.5
0.0722277 0.06216 -0.0025 0.5
0.0722292 0.062162 0.00249083 0.5
0.0722292 0.062162 -0.00249083 0.5
0.0722292 0.062162 0.0025 0.5
0.0722292 0.062162 -0.0025 0.5
0.0886222 0.0352425 0.0025 0.5
0.0886222 0.0352425 -0.0025 0.5
0.0886222 0.0357975 0.0025 0.5
0.0886222 0.0357975 -0.0025 0.5
0.0722234 0.062715 2.05256e-19 0.5
0.0883444 0.03663 0.0025 0.5
0.0883444 0.03663 -0.0025 0.5
0.0886222 0.036075 1.76716e-21 0.5
0.0886222 0.0363525 0.0025 0.5
0.0886222 0.0363525 -0.0025 0.5
0.0886222 0.0369075 0.0025 0.5
0.0886222 0.0369075 -0.0025 0.5
0.0722179 0.0632567 -0.00244003 0.5
0.0722179 0.0632567 0.00244003 0.5
0.0722179 0.0632567 0.0025 0.5
0.0722179 0.0632567 -0.0025 0.5
0.0722077 0.06327 -0.0025 0.5
0.0722077 0.06327 0.0025 0.5
0.0722178 0.0632835 -0.00243934 0.5
0.0722178 0.0632835 0.00243934 0.5
0.0722178 0.0632835 -0.0025 0.5
0.0722178 0.0632835 0.0025 0.5
0.0883444 0.03774 0.0025 0.5
0.0883444 0.03774 -0.0025 0.5
0.0886222 0.037185 -6.78638e-19 0.5
0.0886222 0.0374625 0.0025 0.5
0.0886222 0.0374625 -0.0025 0.5
0.0722123 0.063825 1.0225e-19 0.5
0.0886222 0.0380175 -0.0025 0.5
0.0886222 0.0380175 0.0025 0.5
0.0883444 0.03885 0.0025 0.5
0.0883444 0.03885 -0.0025 0.5
0.0886222 0.038295 1.29532e-18 0.5
0.0886222 0.0385725 -0.0025 0.5
0.0886222 0.0385725 0.0025 0.5
0.0722036 0.0643523 -0.00237543 0.5
0.0722036 0.0643523 0.00237543 0.5
0.0722036 0.0643523 0.0025 0.5
0.0722036 0.0643523 -0.0025 0.5
0.0721825 0.06438 0.0025 0.5
0.0721825 0.06438 -0.0025 0.5
0.072203 0.0644082 0.00237305 0.5