0 	0 	0 	0
0.000446734 	-9.14108e-06 	-4.00143e-05 	8.63844e-26
0.000893467 	-1.82822e-05 	-8.00286e-05 	1.72769e-25
0.0013402 	-2.63501e-05 	-0.000107508 	3.03495e-25
0.00178693 	-3.33972e-05 	-0.000123065 	4.76399e-25
0.00223367 	-4.00061e-05 	-0.000137626 	6.42833e-25
0.0026804 	-2.95216e-05 	-0.000113333 	5.56884e-25
0.00312714 	-1.90372e-05 	-8.9041e-05 	4.70936e-25
0.00357387 	9.32938e-06 	-3.70988e-05 	2.92774e-25
0.0040206 	5.30829e-05 	3.8635e-05 	3.52666e-26
0.00446734 	9.9288e-05 	0.000117274 	-2.11437e-25
0.00491407 	0.000192073 	0.000251117 	-2.52856e-25
0.0053608 	0.000284858 	0.000384959 	-2.94275e-25
0.00580754 	0.000412495 	0.000551157 	-1.97293e-25
0.00625427 	0.000567239 	0.00074252 	7.33532e-27
0.00670101 	0.000727125 	0.000937446 	2.11614e-25
0.00714774 	0.000950416 	0.0011763 	4.11587e-25
0.00759447 	0.00117371 	0.00141516 	6.1156e-25
0.00804121 	0.00143566 	0.00167059 	6.23534e-25
0.00848794 	0.00172476 	0.00193765 	5.03509e-25
0.00893467 	0.00201924 	0.00220504 	3.9186e-25
0.00938141 	0.00236213 	0.00247539 	3.55604e-25
0.00982814 	0.00270502 	0.00274574 	3.19348e-25
0.0102749 	0.00306986 	0.00300298 	4.69557e-25
0.0107216 	0.00344858 	0.00325192 	7.37733e-25
0.0111683 	0.00382937 	0.00349575 	9.51737e-25
0.0116151 	0.00422463 	0.00370386 	7.86537e-25
0.0120618 	0.00461988 	0.00391197 	6.21337e-25
0.0125085 	0.00501489 	0.00408666 	2.56461e-25
0.0129553 	0.00540977 	0.00424234 	-2.21955e-25
0.013402 	0.0058027 	0.00438957 	-6.56336e-25
0.0138487 	0.00618465 	0.00448894 	-8.41183e-25
0.0142955 	0.0065666 	0.00458832 	-1.02603e-24
0.0147422 	0.0069347 	0.00465177 	-9.45747e-25
0.0151889 	0.00729575 	0.00469693 	-7.30399e-25
0.0156357 	0.00765241 	0.00473363 	-4.67017e-25
0.0160824 	0.00798838 	0.00473041 	2.28134e-26
0.0165291 	0.00832435 	0.0047272 	5.12644e-25
0.0169759 	0.00864203 	0.00469594 	6.62204e-25
0.0174226 	0.0089514 	0.00465194 	6.57097e-25
0.0178693 	0.00925547 	0.00460137 	6.00507e-25
0.0183161 	0.00953832 	0.00452453 	3.3799e-25
0.0187628 	0.00982117 	0.00444769 	7.54736e-26
0.0192095 	0.0100858 	0.00435278 	0
0.0196563 	0.010343 	0.00425058 	0
0.020103 	0.0105948 	0.00414416 	-6.43707e-26
0.0205497 	0.0108278 	0.0040232 	-3.50463e-25
0.0209965 	0.0110608 	0.00390224 	-6.36555e-25
0.0214432 	0.0112769 	0.00377158 	-1.02572e-24
0.0218899 	0.011487 	0.00363745 	-1.45158e-24
0.0223367 	0.0116918 	0.00350119 	-1.7504e-24
0.0227834 	0.0118806 	0.00335849 	-1.66815e-24
0.0232302 	0.0120693 	0.00321579 	-1.58589e-24
0.0236769 	0.0122428 	0.00306934 	-1.07246e-24
0.0241236 	0.0124116 	0.00292173 	-4.24728e-25
0.0245704 	0.0125753 	0.00277355 	1.78643e-25
0.0250171 	0.0127255 	0.00262386 	6.65067e-25
0.0254638 	0.0128757 	0.00247417 	1.15149e-24
0.0259106 	0.0130122 	0.00232452 	1.19097e-24
0.0263573 	0.0131451 	0.00217488 	1.10986e-24
0.026804 	0.0132732 	0.00202571 	1.00975e-24
0.0272508 	0.01339 	0.00187763 	8.6533e-25
0.0276975 	0.0135068 	0.00172956 	7.20912e-25
0.0281442 	0.0136114 	0.00158358 	7.44713e-25
0.028591 	0.0137133 	0.00143808 	8.07333e-25
0.0290377 	0.0138105 	0.00129362 	7.85186e-25
0.0294844 	0.0138984 	0.00115131 	5.86981e-25
0.0299312 	0.0139862 	0.001009 	3.88777e-25
0.0303779 	0.014063 	0.000869581 	-8.2642e-26
0.0308246 	0.0141377 	0.000730726 	-6.07072e-25
0.0312714 	0.014208 	0.000593088 	-9.2694e-25
0.0317181 	0.0142702 	0.000457708 	-8.66905e-25
0.0321648 	0.0143325 	0.000322329 	-8.06871e-25
0.0326116 	0.0143845 	0.000189797 	-2.5375e-25
0.0330583 	0.0144349 	5.77195e-05 	3.77978e-25
0.033505 	0.014481 	-7.32337e-05 	8.18173e-25
0.0339518 	0.01452 	-0.000202313 	9.39146e-25
0.0343985 	0.0145589 	-0.000331392 	1.06012e-24
0.0348452 	0.014588 	-0.000458135 	6.92536e-25
0.035292 	0.0146159 	-0.000584582 	2.63024e-25
0.0357387 	0.0146393 	-0.000710128 	2.55261e-26
0.0361854 	0.0146562 	-0.000834322 	7.60503e-26
0.0366322 	0.0146731 	-0.000958516 	1.26574e-25
0.0370789 	0.01468 	-0.00108098 	5.51821e-25
0.0375256 	0.0146859 	-0.00120329 	1.013e-24
0.0379724 	0.0146872 	-0.00132491 	1.18027e-24
0.0384191 	0.0146822 	-0.00144562 	9.49889e-25
0.0388658 	0.0146771 	-0.00156633 	7.1951e-25
0.0393126 	0.0146615 	-0.00168573 	9.71519e-27
0.0397593 	0.0146452 	-0.00180504 	-7.32041e-25
0.040206 	0.0146236 	-0.00192373 	-1.18992e-24
0.0406528 	0.0145955 	-0.00204166 	-1.30085e-24
0.0410995 	0.0145674 	-0.00215959 	-1.41178e-24
0.0415462 	0.0145272 	-0.00227598 	-1.08497e-24
0.041993 	0.0144865 	-0.0023923 	-7.41096e-25
0.0424397 	0.0144393 	-0.0025076 	-5.06162e-25
0.0428864 	0.0143848 	-0.00262176 	-3.91632e-25
0.0433332 	0.0143303 	-0.00273592 	-2.77101e-25
0.0437799 	0.0142604 	-0.0028469 	-2.20822e-25
0.0442266 	0.0141903 	-0.00295785 	-1.65279e-25
0.0446734 	0.014111 	-0.00306636 	-1.09868e-25
0.0451201 	0.0140226 	-0.00317243 	-5.45887e-26
0.0455668 	0.0139339 	-0.0032784 	2.03628e-27
0.0460136 	0.0138236 	-0.00337716 	1.64939e-25
0.0464603 	0.0137133 	-0.00347591 	3.27841e-25
0.046907 	0.0135892 	-0.00356907 	6.28429e-25
0.0473538 	0.0134525 	-0.00365718 	1.05359e-24
0.0478005 	0.0133146 	-0.00374474 	1.4606e-24
0.0482472 	0.0131463 	-0.00381799 	1.40158e-24
0.048694 	0.012978 	-0.00389125 	1.34257e-24
0.0491407 	0.0127892 	-0.00395361 	1.06215e-24
0.0495874 	0.0125836 	-0.00400705 	6.00589e-25
0.0500342 	0.0123754 	-0.00405893 	1.67993e-25
0.0504809 	0.0121274 	-0.00408726 	1.69928e-25
0.0509276 	0.0118795 	-0.00411559 	1.71863e-25
0.0513744 	0.0116051 	-0.00412656 	1.93618e-25
0.0518211 	0.0113112 	-0.00412472 	2.30022e-25
0.0522678 	0.0110132 	-0.00411988 	2.5398e-25
0.0527146 	0.0106726 	-0.00408388 	1.48155e-25
0.0531613 	0.0103319 	-0.00404787 	4.23301e-26
0.053608 	0.00996503 	-0.00399016 	0
0.0540548 	0.00958064 	-0.00391798 	0
0.0545015 	0.0091922 	-0.00384181 	0
0.0549482 	0.00877174 	-0.0037342 	0
0.055395 	0.00835128 	-0.00362658 	0
0.0558417 	0.00791595 	-0.0034993 	3.1998e-26
0.0562884 	0.00747169 	-0.00336022 	8.31948e-26
0.0567352 	0.00702637 	-0.00321778 	1.33593e-25
0.0571819 	0.00657434 	-0.00305429 	1.78981e-25
0.0576286 	0.00612232 	-0.00289081 	2.24369e-25
0.0580754 	0.00567693 	-0.00271757 	2.21927e-25
0.0585221 	0.00523511 	-0.00253907 	1.9373e-25
0.0589688 	0.00479779 	-0.0023598 	1.56489e-25
0.0594156 	0.00438365 	-0.00217657 	7.26375e-26
0.0598623 	0.00396952 	-0.00199334 	-1.1214e-26
0.060309 	0.00358383 	-0.00181328 	-6.57635e-26
0.0607558 	0.00321184 	-0.00163474 	-1.06205e-25
0.0612025 	0.00284953 	-0.00145836 	-1.25924e-25
0.0616492 	0.00252916 	-0.00129137 	-5.58471e-26
0.062096 	0.0022088 	-0.00112438 	1.42294e-26
0.0625427 	0.00192717 	-0.000967763 	6.86395e-26
0.0629894 	0.00166214 	-0.000815586 	1.16335e-25
0.0634362 	0.00140857 	-0.000666512 	1.53185e-25
0.0638829 	0.00119743 	-0.000528933 	1.49838e-25
0.0643296 	0.000986299 	-0.000391354 	1.46491e-25
0.0647764 	0.000810759 	-0.000262963 	1.594e-25
0.0652231 	0.000648721 	-0.000138056 	1.78474e-25
0.0656698 	0.000496985 	-1.61498e-05 	1.94285e-25
0.0661166 	0.000378325 	9.61242e-05 	1.99619e-25
0.0665633 	0.000259665 	0.000208398 	2.04953e-25
0.0670101 	0.000170094 	0.000306373 	1.54216e-25
0.0674568 	9.02188e-05 	0.000399582 	8.47886e-26
0.0679035 	1.97232e-05 	0.000483685 	2.00436e-26
0.0683503 	-2.44213e-05 	0.000542208 	-3.15453e-26
0.068797 	-6.85658e-05 	0.000600731 	-8.31343e-26
0.0692437 	-8.77853e-05 	0.000615757 	-8.93552e-26
0.0696905 	-9.97685e-05 	0.000618155 	-8.24048e-26
0.0701372 	-0.000104669 	0.000599837 	-7.83029e-26
0.0705839 	-9.20164e-05 	0.000530181 	-8.12604e-26
0.0710307 	-7.93637e-05 	0.000460525 	-8.42179e-26
0.0714774 	-5.74319e-05 	0.000336126 	-7.34562e-26
0.0719241 	-3.31802e-05 	0.00019804 	-5.92646e-26
0.0723709 	-1.00849e-05 	4.79002e-05 	-3.84045e-26
0.0728176 	1.04664e-05 	-0.00012876 	-2.87352e-27
0.0732643 	3.10177e-05 	-0.00030542 	3.26575e-26
0.0737111 	3.98673e-05 	-0.000469759 	5.41619e-26
0.0741578 	4.62348e-05 	-0.000631483 	7.2691e-26
0.0746045 	4.79773e-05 	-0.000762204 	9.10003e-26
0.0750513 	4.06409e-05 	-0.000832064 	1.08878e-25
0.075498 	3.33045e-05 	-0.000901925 	1.26756e-25
0.0759447 	2.40732e-05 	-0.000803305 	1.22549e-25
0.0763915 	1.45075e-05 	-0.000674954 	1.14446e-25
0.0768382 	7.1967e-06 	-0.000526525 	9.74988e-26
0.0772849 	3.85138e-06 	-0.000342789 	6.50002e-26
0.0777317 	5.06058e-07 	-0.000159053 	3.25016e-26
0.0781784 	1.0819e-07 	-8.82589e-05 	1.8408e-26
0.0786251 	1.31387e-07 	-3.35992e-05 	6.94366e-27
0.0790719 	1.52609e-07 	-1.21896e-07 	-4.35522e-29
0.0795186 	1.70711e-07 	-1.26316e-07 	4.59964e-29
0.0799653 	1.88813e-07 	-1.30737e-07 	1.35545e-28
0.0804121 	1.87276e-07 	-1.38515e-07 	1.79862e-28
0.0808588 	1.83556e-07 	-1.46666e-07 	2.19153e-28
0.0813055 	1.78914e-07 	-1.55325e-07 	1.91277e-28
0.0817523 	1.72956e-07 	-1.64708e-07 	6.77397e-29
0.082199 	1.66999e-07 	-1.7409e-07 	-5.57974e-29
0.0826457 	1.59272e-07 	-1.84719e-07 	-2.30813e-28
0.0830925 	1.51401e-07 	-1.95448e-07 	-4.10002e-28
0.0835392 	1.42804e-07 	-2.06819e-07 	-5.38989e-28
0.0839859 	1.33273e-07 	-2.19014e-07 	-6.03432e-28
0.0844327 	1.23741e-07 	-2.31209e-07 	-6.67874e-28
0.0848794 	1.12851e-07 	-2.44934e-07 	-4.45584e-28
0.0853261 	1.0189e-07 	-2.58739e-07 	-2.08203e-28
0.0857729 	9.03857e-08 	-2.73368e-07 	-6.89424e-29
0.0862196 	7.82504e-08 	-2.88954e-07 	-4.37147e-29
0.0866663 	6.61151e-08 	-3.0454e-07 	-1.8487e-29
0.0871131 	5.31406e-08 	-3.22024e-07 	-3.62096e-28
0.0875598 	4.01445e-08 	-3.39557e-07 	-7.15163e-28
0.0880065 	2.69219e-08 	-2.80235e-07 	-7.2049e-28
0.0884533 	1.34609e-08 	-1.40118e-07 	-3.60245e-28
0.0889 	3.89289e-22 	-9.70308e-21 	-2.79804e-41
