# f_l  POINT_DATA 1273
#  x  y  z  f_l
0.064329 0.001665 2.96015e-20 0.5
0.0642842 0.00222 0.0025 0.5
0.0642842 0.00222 -0.0025 0.5
0.0643492 0.00111 0.0025 0.5
0.0643492 0.00111 -0.0025 0.5
0.0643419 0.00210956 -0.0020025 0.5
0.0643419 0.00210956 0.0020025 0.5
0.0643596 0.002775 -7.36003e-20 0.5
0.0643462 0.00232614 -0.00202189 0.5
0.0643462 0.00232614 0.00202189 0.5
0.0643419 0.00210956 0.0025 0.5
0.0643419 0.00210956 -0.0025 0.5
0.0643831 0.00117931 0.00218781 0.5
0.0643831 0.00117931 -0.00218781 0.5
0.0643875 0.00104506 -0.00220746 0.5
0.0643875 0.00104506 0.00220746 0.5
0.0643462 0.00232614 0.0025 0.5
0.0643462 0.00232614 -0.0025 0.5
0.0643831 0.00117931 -0.0025 0.5
0.0643831 0.00117931 0.0025 0.5
0.0643875 0.00104506 0.0025 0.5
0.0643875 0.00104506 -0.0025 0.5
0.064326 0.00333 0.0025 0.5
0.064326 0.00333 -0.0025 0.5
0.0643703 0.00324788 -0.00213007 0.5
0.0643703 0.00324788 0.00213007 0.5
0.0643727 0.00340975 0.00214076 0.5
0.0643727 0.00340975 -0.00214076 0.5
0.0643703 0.00324788 0.0025 0.5
0.0643703 0.00324788 -0.0025 0.5
0.0643836 0.003885 -7.91292e-20 0.5
0.0644525 0.00102766 -0.0025 0.5
0.0644525 0.00102766 0.0025 0.5
0.0643727 0.00340975 0.0025 0.5
0.0643727 0.00340975 -0.0025 0.5
0.0643655 0.00444 0.0025 0.5
0.0643655 0.00444 -0.0025 0.5
0.0643962 0.00438379 -0.00224682 0.5
0.0643962 0.00438379 0.00224682 0.5
0.0643962 0.00438379 0.0025 0.5
0.0643962 0.00438379 -0.0025 0.5
0.064398 0.00449448 0.0022546 0.5
0.064398 0.00449448 -0.0022546 0.5
0.064398 0.00449448 0.0025 0.5
0.064398 0.00449448 -0.0025 0.5
0.0644109 0.004995 5.68624e-20 0.5
0.0644131 0.00555 0.0025 0.5
0.0644131 0.00555 -0.0025 0.5
0.0644272 0.00552468 -0.00238595 0.5
0.0644272 0.00552468 0.00238595 0.5
0.0644272 0.00552468 0.0025 0.5
0.0644272 0.00552468 -0.0025 0.5
0.0644281 0.00557441 -0.00239003 0.5
0.0644281 0.00557441 0.00239003 0.5
0.0644281 0.00557441 -0.0025 0.5
0.0644281 0.00557441 0.0025 0.5
0.0644448 0.006105 -2.15644e-19 0.5
0.0644525 0.00629752 -0.0025 0.5
0.0644525 0.00629752 0.0025 0.5
0.0647989 0.000345988 0.0025 0.5
0.0647989 0.000345988 -0.0025 0.5
0.0644643 0.00664821 -0.0024469 0.5
0.0644643 0.00664821 0.0024469 0.5
0.0644643 0.00664821 0.0025 0.5
0.0644643 0.00664821 -0.0025 0.5
0.0644656 0.00667313 -0.00244086 0.5
0.0644656 0.00667313 0.00244086 0.5
0.0644656 0.00667313 0.0025 0.5
0.0644656 0.00667313 -0.0025 0.5
0.064472 0.00666 0.0025 0.5
0.064472 0.00666 -0.0025 0.5
0.0644858 0.007215 -1.45839e-19 0.5
0.0649432 0.000359923 -4.76534e-22 0.5
0.0645066 0.00771596 -0.00225659 0.5
0.0645066 0.00771596 0.00225659 0.5
0.0645066 0.00771596 0.0025 0.5
0.0645066 0.00771596 -0.0025 0.5
0.0645139 0.00783129 -0.00222393 0.5
0.0645139 0.00783129 0.00222393 0.5
0.0645139 0.00783129 0.0025 0.5
0.0645139 0.00783129 -0.0025 0.5
0.064538 0.00777 0.0025 0.5
0.064538 0.00777 -0.0025 0.5
0.0645352 0.008325 -2.42274e-19 0.5
0.0645569 0.00877568 -0.00203011 0.5
0.0645569 0.00877568 0.00203011 0.5
0.0645569 0.00877568 0.0025 0.5
0.0645569 0.00877568 -0.0025 0.5
0.0645733 0.00900069 -0.00195633 0.5
0.0645733 0.00900069 0.00195633 0.5
0.0645733 0.00900069 0.0025 0.5
0.0645733 0.00900069 -0.0025 0.5
0.0646092 0.00888 0.0025 0.5
0.0646092 0.00888 -0.0025 0.5
0.0652174 0.000345988 0.0025 0.5
0.0652174 0.000345988 -0.0025 0.5
0.0645953 0.009435 -2.55181e-19 0.5
0.0646173 0.00982537 -0.00175842 0.5
0.0646173 0.00982537 0.00175842 0.5
0.0646173 0.00982537 0.0025 0.5
0.0646173 0.00982537 -0.0025 0.5
0.0646484 0.0101857 -0.00161845 0.5
0.0646484 0.0101857 0.00161845 0.5
0.0646484 0.0101857 0.0025 0.5
0.0646484 0.0101857 -0.0025 0.5
0.0646859 0.00999 -0.0025 0.5
0.0646859 0.00999 0.0025 0.5
0.0646699 0.010545 9.44913e-20 0.5
0.0646908 0.010862 -0.00142781 0.5
0.0646908 0.010862 0.00142781 0.5
0.0655638 0.000593055 -0.0025 0.5
0.0655638 0.000593055 0.0025 0.5
0.0646908 0.010862 0.0025 0.5
0.0646908 0.010862 -0.0025 0.5
0.0647679 0.0111 0.0025 0.5
0.0647679 0.0111 -0.0025 0.5
0.0647448 0.011392 0.0025 0.5
0.0647448 0.011392 -0.0025 0.5
0.0647629 0.0116431 9.33891e-20 0.5
0.0658416 0.0002775 0.0025 0.5
0.0658416 0.0002775 -0.0025 0.5
0.0647807 0.0118822 0.0025 0.5
0.0647807 0.0118822 -0.0025 0.5
0.064854 0.01221 0.0025 0.5
0.064854 0.01221 -0.0025 0.5
0.0661194 0.0002775 -1.81913e-21 0.5
0.0648812 0.0127578 1.9455e-19 0.5
0.0648702 0.0126273 -0.0025 0.5
0.0648702 0.0126273 0.0025 0.5
0.0648918 0.0128812 -0.0025 0.5
0.0648918 0.0128812 0.0025 0.5
0.0649427 0.01332 -0.0025 0.5
0.0649427 0.01332 0.0025 0.5
0.0663972 0.0002775 0.0025 0.5
0.0663972 0.0002775 -0.0025 0.5
0.0650285 0.0138615 3.17777e-21 0.5
0.0650287 0.0138544 0.0025 0.5
0.0650287 0.0138544 -0.0025 0.5
0.0650316 0.0138984 0.0025 0.5
0.0650316 0.0138984 -0.0025 0.5
0.0650329 0.01443 0.0025 0.5
0.0650329 0.01443 -0.0025 0.5
0.066675 0.000555 -0.0025 0.5
0.066675 0.000555 0.0025 0.5
0.0651602 0.0149912 -6.84563e-23 0.5
0.0651512 0.0148421 0.0025 0.5
0.0651512 0.0148421 -0.0025 0.5
0.0651697 0.0151464 0.0025 0.5
0.0651697 0.0151464 -0.0025 0.5
0.0651231 0.01554 0.0025 0.5
0.0651231 0.01554 -0.0025 0.5
0.0669528 0.0002775 0.0025 0.5
0.0669528 0.0002775 -0.0025 0.5
0.0652524 0.015851 0.0025 0.5
0.0652524 0.015851 -0.0025 0.5
0.0652664 0.0161046 2.76456e-21 0.5
0.0672306 0.0002775 9.10876e-20 0.5
0.0652811 0.0163676 0.0025 0.5
0.0652811 0.0163676 -0.0025 0.5
0.0652111 0.01665 0.0025 0.5
0.0652111 0.01665 -0.0025 0.5
0.0653349 0.0168786 0.00147047 0.5
0.0653349 0.0168786 -0.00147047 0.5
0.0653349 0.0168786 0.0025 0.5
0.0653349 0.0168786 -0.0025 0.5
0.0675084 0.0002775 0.0025 0.5
0.0675084 0.0002775 -0.0025 0.5
0.0653513 0.017205 -1.53424e-20 0.5
0.0653687 0.0175652 -0.00162247 0.5
0.0653687 0.0175652 0.00162247 0.5
0.0652942 0.01776 0.0025 0.5
0.0652942 0.01776 -0.0025 0.5
0.0653687 0.0175652 0.0025 0.5
0.0653687 0.0175652 -0.0025 0.5
0.0677863 0.000555 -0.0025 0.5
0.0677863 0.000555 0.0025 0.5
0.0654016 0.0179219 0.00177064 0.5
0.0654016 0.0179219 -0.00177064 0.5
0.0654016 0.0179219 0.0025 0.5
0.0654016 0.0179219 -0.0025 0.5
0.065419 0.018315 -7.18964e-19 0.5
0.065374 0.01887 0.0025 0.5
0.065374 0.01887 -0.0025 0.5
0.0654391 0.0187455 -0.00193919 0.5
0.0654391 0.0187455 0.00193919 0.5
0.0680641 0.0002775 0.0025 0.5
0.0680641 0.0002775 -0.0025 0.5
0.0654391 0.0187455 0.0025 0.5
0.0654391 0.0187455 -0.0025 0.5
0.0654564 0.0189772 0.00201709 0.5
0.0654564 0.0189772 -0.00201709 0.5
0.0654564 0.0189772 0.0025 0.5
0.0654564 0.0189772 -0.0025 0.5
0.0654762 0.019425 6.48207e-19 0.5
0.0683419 0.0002775 1.14121e-19 0.5
0.0655042 0.01998 0.0025 0.5
0.0655042 0.01998 -0.0025 0.5
0.0655274 0.0199437 -0.00233655 0.5
0.0655274 0.0199437 0.00233655 0.5
0.0655274 0.0199437 0.0025 0.5
0.0655274 0.0199437 -0.0025 0.5
0.0655311 0.0200126 0.00235318 0.5
0.0655311 0.0200126 -0.00235318 0.5
0.0655311 0.0200126 0.0025 0.5
0.0655311 0.0200126 -0.0025 0.5
0.0686197 0.0002775 0.0025 0.5
0.0686197 0.0002775 -0.0025 0.5
0.0655638 0.0203374 -0.0025 0.5
0.0655638 0.0203374 0.0025 0.5
0.0655882 0.020535 -5.34975e-21 0.5
0.0688975 0.000555 -0.0025 0.5
0.0688975 0.000555 0.0025 0.5
0.0656335 0.0210204 -0.00218632 0.5
0.0656335 0.0210204 0.00218632 0.5
0.0656335 0.0210204 0.0025 0.5
0.0656335 0.0210204 -0.0025 0.5
0.0656581 0.0211842 -0.00207564 0.5
0.0656581 0.0211842 0.00207564 0.5
0.0656581 0.0211842 0.0025 0.5
0.0656581 0.0211842 -0.0025 0.5
0.0656907 0.02109 0.0025 0.5
0.0656907 0.02109 -0.0025 0.5
0.0657058 0.021645 -1.24308e-19 0.5
0.0691753 0.0002775 0.0025 0.5
0.0691753 0.0002775 -0.0025 0.5
0.065742 0.0220219 -0.00169778 0.5
0.065742 0.0220219 0.00169778 0.5
0.065742 0.0220219 0.0025 0.5
0.065742 0.0220219 -0.0025 0.5
0.0694531 0.0002775 9.36031e-20 0.5
0.0658477 0.0222 -0.0025 0.5
0.0658477 0.0222 0.0025 0.5
0.0658113 0.0224472 -0.00138639 0.5
0.0658113 0.0224472 0.00138639 0.5
0.0658113 0.0224472 0.0025 0.5
0.0658113 0.0224472 -0.0025 0.5
0.0658616 0.022921 -1.35914e-19 0.5
0.0697309 0.0002775 0.0025 0.5
0.0697309 0.0002775 -0.0025 0.5
0.0658701 0.023004 0.0025 0.5
0.0658701 0.023004 -0.0025 0.5
0.0659877 0.02331 0.0025 0.5
0.0659877 0.02331 -0.0025 0.5
0.0700088 0.000555 -0.0025 0.5
0.0700088 0.000555 0.0025 0.5
0.0660076 0.0237533 0.0025 0.5
0.0660076 0.0237533 -0.0025 0.5
0.0660278 0.0239045 3.02957e-20 0.5
0.0660307 0.0239536 0.0025 0.5
0.0660307 0.0239536 -0.0025 0.5
0.0702866 0.0002775 0.0025 0.5
0.0702866 0.0002775 -0.0025 0.5
0.0661158 0.02442 -0.0025 0.5
0.0661158 0.02442 0.0025 0.5
0.0705644 0.0002775 2.66209e-19 0.5
0.0662208 0.0248737 0.0025 0.5
0.0662208 0.0248737 -0.0025 0.5
0.0662307 0.0249818 -1.12875e-19 0.5
0.0662411 0.0250966 0.0025 0.5
0.0662411 0.0250966 -0.0025 0.5
0.0708422 0.0002775 0.0025 0.5
0.0708422 0.0002775 -0.0025 0.5
0.0662346 0.02553 0.0025 0.5
0.0662346 0.02553 -0.0025 0.5
0.07112 0.000555 -0.0025 0.5
0.07112 0.000555 0.0025 0.5
0.0663705 0.0259219 -2.18786e-20 0.5
0.0663643 0.0258404 0.0025 0.5
0.0663643 0.0258404 -0.0025 0.5
0.0713978 0.0002775 0.0025 0.5
0.0713978 0.0002775 -0.0025 0.5
0.0664033 0.0263686 -0.0012774 0.5
0.0664033 0.0263686 0.0012774 0.5
0.0664033 0.0263686 -0.0025 0.5
0.0664033 0.0263686 0.0025 0.5
0.0663441 0.02664 0.0025 0.5
0.0663441 0.02664 -0.0025 0.5
0.0716756 0.0002775 9.36031e-20 0.5
0.0664673 0.0268475 0.00156544 0.5
0.0664673 0.0268475 -0.00156544 0.5
0.0664673 0.0268475 0.0025 0.5
0.0664673 0.0268475 -0.0025 0.5
0.0664891 0.027195 9.09865e-19 0.5
0.0719534 0.0002775 0.0025 0.5
0.0719534 0.0002775 -0.0025 0.5
0.0665117 0.0275868 -0.00176503 0.5
0.0665117 0.0275868 0.00176503 0.5
0.0665117 0.0275868 0.0025 0.5
0.0665117 0.0275868 -0.0025 0.5
0.0664443 0.02775 0.0025 0.5
0.0664443 0.02775 -0.0025 0.5
0.0665437 0.0278811 0.00190936 0.5
0.0665437 0.0278811 -0.00190936 0.5
0.0665437 0.0278811 0.0025 0.5
0.0665437 0.0278811 -0.0025 0.5
0.0722313 0.000555 -0.0025 0.5
0.0722313 0.000555 0.0025 0.5
0.0665656 0.028305 -7.2236e-19 0.5
0.0725091 0.0002775 0.0025 0.5
0.0725091 0.0002775 -0.0025 0.5
0.0665285 0.02886 0.0025 0.5
0.0665285 0.02886 -0.0025 0.5
0.0665837 0.0287688 -0.00208941 0.5
0.0665837 0.0287688 0.00208941 0.5
0.0665837 0.0287688 0.0025 0.5
0.0665837 0.0287688 -0.0025 0.5
0.0665965 0.0289384 0.00214674 0.5
0.0665965 0.0289384 -0.00214674 0.5
0.0665965 0.0289384 0.0025 0.5
0.0665965 0.0289384 -0.0025 0.5
0.0727869 0.0002775 1.145e-19 0.5
0.0666137 0.029415 -4.16037e-20 0.5
0.0666147 0.02997 0.0025 0.5
0.0666147 0.02997 -0.0025 0.5
0.0666406 0.0299356 -0.00234501 0.5
0.0666406 0.0299356 0.00234501 0.5
0.0666406 0.0299356 0.0025 0.5
0.0666406 0.0299356 -0.0025 0.5
0.0730647 0.0002775 0.0025 0.5
0.0730647 0.0002775 -0.0025 0.5
0.0666439 0.0300011 0.00235998 0.5
0.0666439 0.0300011 -0.00235998 0.5
0.0666439 0.0300011 0.0025 0.5
0.0666439 0.0300011 -0.0025 0.5
0.0666709 0.030525 -9.24631e-20 0.5
0.066675 0.030484 -0.0025 0.5
0.066675 0.030484 0.0025 0.5
0.0733425 0.000555 -0.0025 0.5
0.0733425 0.000555 0.0025 0.5
0.0667103 0.0310448 -0.00234127 0.5
0.0667103 0.0310448 0.00234127 0.5
0.0667103 0.0310448 0.0025 0.5
0.0667103 0.0310448 -0.0025 0.5
0.066721 0.0311259 -0.00229318 0.5
0.066721 0.0311259 0.00229318 0.5
0.0736203 0.0002775 0.0025 0.5
0.0736203 0.0002775 -0.0025 0.5
0.066721 0.0311259 0.0025 0.5
0.066721 0.0311259 -0.0025 0.5
0.0667462 0.03108 0.0025 0.5
0.0667462 0.03108 -0.0025 0.5
0.0667638 0.031635 -2.76513e-21 0.5
0.0738981 0.0002775 1.12679e-19 0.5
0.0668232 0.0320419 -0.001833 0.5
0.0668232 0.0320419 0.001833 0.5
0.0668232 0.0320419 0.0025 0.5
0.0668232 0.0320419 -0.0025 0.5
0.0741759 0.0002775 0.0025 0.5
0.0741759 0.0002775 -0.0025 0.5
0.0669569 0.03219 0.0025 0.5
0.0669569 0.03219 -0.0025 0.5
0.0669597 0.0324743 0.0025 0.5
0.0669597 0.0324743 -0.0025 0.5
0.0744538 0.000555 -0.0025 0.5
0.0744538 0.000555 0.0025 0.5
0.0670001 0.0327223 1.79061e-21 0.5
0.0670278 0.0329476 0.0025 0.5
0.0670278 0.0329476 -0.0025 0.5
0.0747316 0.0002775 0.0025 0.5
0.0747316 0.0002775 -0.0025 0.5
0.0671365 0.0333 0.0025 0.5
0.0671365 0.0333 -0.0025 0.5
0.0750094 0.0002775 1.14375e-19 0.5
0.0671442 0.0337686 0.0025 0.5
0.0671442 0.0337686 -0.0025 0.5
0.0671488 0.0338527 2.18656e-19 0.5
0.0671509 0.0339346 0.0025 0.5
0.0671509 0.0339346 -0.0025 0.5
0.0752872 0.0002775 0.0025 0.5
0.0752872 0.0002775 -0.0025 0.5
0.067179 0.03441 0.0025 0.5
0.067179 0.03441 -0.0025 0.5
0.075565 0.000555 -0.0025 0.5
0.075565 0.000555 0.0025 0.5
0.0671284 0.0348629 0.0025 0.5
0.0671284 0.0348629 -0.0025 0.5
0.0671307 0.0349625 0 0.5
0.0671359 0.0350597 0.0025 0.5
0.0671359 0.0350597 -0.0025 0.5
0.0758428 0.0002775 0.0025 0.5
0.0758428 0.0002775 -0.0025 0.5
0.0672256 0.03552 -0.0025 0.5
0.0672256 0.03552 0.0025 0.5
0.0761206 0.0002775 1.14623e-19 0.5
0.0673098 0.0360345 1.19137e-19 0.5
0.0673098 0.0359959 0.0025 0.5
0.0673098 0.0359959 -0.0025 0.5
0.0763984 0.0002775 0.0025 0.5
0.0763984 0.0002775 -0.0025 0.5
0.0673229 0.0361671 0.0025 0.5
0.0673229 0.0361671 -0.0025 0.5
0.0673182 0.03663 0.0025 0.5
0.0673182 0.03663 -0.0025 0.5
0.0766763 0.000555 -0.0025 0.5
0.0766763 0.000555 0.0025 0.5
0.0674276 0.0369883 0.0025 0.5
0.0674276 0.0369883 -0.0025 0.5
0.0769541 0.0002775 0.0025 0.5
0.0769541 0.0002775 -0.0025 0.5
0.0674389 0.0371924 1.0889e-19 0.5
0.0674499 0.0374041 0.0025 0.5
0.0674499 0.0374041 -0.0025 0.5
0.0772319 0.0002775 1.08196e-19 0.5
0.0673921 0.03774 0.0025 0.5
0.0673921 0.03774 -0.0025 0.5
0.0675066 0.0380193 -0.0025 0.5
0.0675066 0.0380193 0.0025 0.5
0.0675106 0.0381112 2.08055e-18 0.5
0.0775097 0.0002775 0.0025 0.5
0.0775097 0.0002775 -0.0025 0.5
0.0675299 0.038594 0.00134679 0.5
0.0675299 0.038594 -0.00134679 0.5
0.0675299 0.038594 0.0025 0.5
0.0675299 0.038594 -0.0025 0.5
0.0777875 0.000555 -0.0025 0.5
0.0777875 0.000555 0.0025 0.5
0.0674532 0.03885 -0.0025 0.5
0.0674532 0.03885 0.0025 0.5
0.0675645 0.0390715 -0.00150206 0.5
0.0675645 0.0390715 0.00150206 0.5
0.0675645 0.0390715 0.0025 0.5
0.0675645 0.0390715 -0.0025 0.5
0.0780653 0.0002775 0.0025 0.5
0.0780653 0.0002775 -0.0025 0.5
0.0675761 0.039405 -2.6327e-18 0.5
0.0783431 0.0002775 8.26565e-20 0.5
0.0675864 0.0397604 -0.00160083 0.5
0.0675864 0.0397604 0.00160083 0.5
0.0675864 0.0397604 0.0025 0.5
0.0675864 0.0397604 -0.0025 0.5
0.0675047 0.03996 0.0025 0.5
0.0675047 0.03996 -0.0025 0.5
0.0676078 0.0401383 0.00169685 0.5
0.0676078 0.0401383 -0.00169685 0.5
0.0786209 0.0002775 0.0025 0.5
0.0786209 0.0002775 -0.0025 0.5
0.0676078 0.0401383 0.0025 0.5
0.0676078 0.0401383 -0.0025 0.5
0.0676181 0.040515 4.444e-19 0.5
0.0788988 0.000555 -0.0025 0.5
0.0788988 0.000555 0.0025 0.5
0.0676265 0.0409105 0.00178132 0.5
0.0676265 0.0409105 -0.00178132 0.5
0.0676265 0.0409105 0.0025 0.5
0.0676265 0.0409105 -0.0025 0.5
0.0675462 0.04107 0.0025 0.5
0.0675462 0.04107 -0.0025 0.5
0.0791766 0.0002775 0.0025 0.5
0.0791766 0.0002775 -0.0025 0.5
0.0676393 0.0412168 0.00183886 0.5
0.0676393 0.0412168 -0.00183886 0.5
0.0676393 0.0412168 0.0025 0.5
0.0676393 0.0412168 -0.0025 0.5
0.0676477 0.041625 -3.89333e-19 0.5
0.0794544 0.0002775 9.54222e-20 0.5
0.0676541 0.042048 -0.0019056 0.5
0.0676541 0.042048 0.0019056 0.5
0.0676541 0.042048 0.0025 0.5
0.0676541 0.042048 -0.0025 0.5
0.067578 0.04218 0.0025 0.5
0.067578 0.04218 -0.0025 0.5
0.0797322 0.0002775 0.0025 0.5
0.0797322 0.0002775 -0.0025 0.5
0.0676619 0.0423042 -0.00194041 0.5
0.0676619 0.0423042 0.00194041 0.5
0.0676619 0.0423042 -0.0025 0.5
0.0676619 0.0423042 0.0025 0.5
0.0676683 0.042735 2.4625e-19 0.5
0.08001 0.000555 -0.0025 0.5
0.08001 0.000555 0.0025 0.5
0.0676727 0.0431766 0.00198925 0.5
0.0676727 0.0431766 -0.00198925 0.5
0.0676727 0.0431766 0.0025 0.5
0.0676727 0.0431766 -0.0025 0.5
0.0676009 0.04329 -0.0025 0.5
0.0676009 0.04329 0.0025 0.5
0.0802878 0.0002775 0.0025 0.5
0.0802878 0.0002775 -0.0025 0.5
0.0676772 0.043399 0.0020092 0.5
0.0676772 0.043399 -0.0020092 0.5
0.0676772 0.043399 0.0025 0.5
0.0676772 0.043399 -0.0025 0.5
0.0805656 0.0002775 1.15842e-19 0.5
0.0676816 0.043845 -1.22777e-18 0.5
0.0808434 0.0002775 0.0025 0.5
0.0808434 0.0002775 -0.0025 0.5
0.0676841 0.044298 0.00204045 0.5
0.0676841 0.044298 -0.00204045 0.5
0.0676153 0.0444 0.0025 0.5
0.0676153 0.0444 -0.0025 0.5
0.0676841 0.044298 0.0025 0.5
0.0676841 0.044298 -0.0025 0.5
0.0676864 0.0444998 -0.00205059 0.5
0.0676864 0.0444998 0.00205059 0.5
0.0676864 0.0444998 0.0025 0.5
0.0676864 0.0444998 -0.0025 0.5
0.0811213 0.000555 -0.0025 0.5
0.0811213 0.000555 0.0025 0.5
0.0676889 0.044955 2.65214e-18 0.5
0.0813991 0.0002775 0.0025 0.5
0.0813991 0.0002775 -0.0025 0.5
0.0676897 0.0454136 -0.00206569 0.5
0.0676897 0.0454136 0.00206569 0.5
0.0676223 0.04551 -0.0025 0.5
0.0676223 0.04551 0.0025 0.5
0.0676897 0.0454136 0.0025 0.5
0.0676897 0.0454136 -0.0025 0.5
0.0676904 0.0456057 0.00206881 0.5
0.0676904 0.0456057 -0.00206881 0.5
0.0676904 0.0456057 0.0025 0.5
0.0676904 0.0456057 -0.0025 0.5
0.0816769 0.0002775 9.5745e-20 0.5
0.0676912 0.046065 4.5276e-19 0.5
0.0819547 0.0002775 0.0025 0.5
0.0819547 0.0002775 -0.0025 0.5
0.0676904 0.0465242 -0.00206869 0.5
0.0676904 0.0465242 0.00206869 0.5
0.0676222 0.04662 0.0025 0.5
0.0676222 0.04662 -0.0025 0.5
0.0676904 0.0465242 0.0025 0.5
0.0676904 0.0465242 -0.0025 0.5
0.0676897 0.0467165 0.00206547 0.5
0.0676897 0.0467165 -0.00206547 0.5
0.0822325 0.000555 -0.0025 0.5
0.0822325 0.000555 0.0025 0.5
0.0676897 0.0467165 0.0025 0.5
0.0676897 0.0467165 -0.0025 0.5
0.0676888 0.047175 1.46653e-18 0.5
0.0825103 0.0002775 0.0025 0.5
0.0825103 0.0002775 -0.0025 0.5
0.0827881 0.0002775 8.32524e-20 0.5
0.0676864 0.0476302 -0.00205067 0.5
0.0676864 0.0476302 0.00205067 0.5
0.0676154 0.04773 0.0025 0.5
0.0676154 0.04773 -0.0025 0.5
0.0676864 0.0476302 -0.0025 0.5
0.0676864 0.0476302 0.0025 0.5
0.0676842 0.0478319 -0.0020409 0.5
0.0676842 0.0478319 0.0020409 0.5
0.0676842 0.0478319 -0.0025 0.5
0.0676842 0.0478319 0.0025 0.5
0.0830659 0.0002775 0.0025 0.5
0.0830659 0.0002775 -0.0025 0.5
0.0676818 0.048285 -2.7121e-18 0.5
0.0833437 0.000555 -0.0025 0.5
0.0833437 0.000555 0.0025 0.5
0.0676776 0.0487315 0.00201124 0.5
0.0676776 0.0487315 -0.00201124 0.5
0.0676776 0.0487315 0.0025 0.5
0.0676776 0.0487315 -0.0025 0.5
0.0676017 0.04884 0.0025 0.5
0.0676017 0.04884 -0.0025 0.5
0.0676735 0.0489526 0.00199262 0.5
0.0676735 0.0489526 -0.00199262 0.5
0.0676735 0.0489526 0.0025 0.5
0.0676735 0.0489526 -0.0025 0.5
0.0836216 0.0002775 0.0025 0.5
0.0836216 0.0002775 -0.0025 0.5
0.0676693 0.049395 1.07807e-18 0.5
0.0838994 0.0002775 3.228e-22 0.5
0.0676636 0.0498275 0.00194807 0.5
0.0676636 0.0498275 -0.00194807 0.5
0.0676636 0.0498275 -0.0025 0.5
0.0676636 0.0498275 0.0025 0.5
0.0675809 0.04995 -0.0025 0.5
0.0675809 0.04995 0.0025 0.5
0.0676568 0.0500793 0.00191768 0.5
0.0676568 0.0500793 -0.00191768 0.5
0.0676568 0.0500793 0.0025 0.5
0.0676568 0.0500793 -0.0025 0.5
0.0841772 0.0002775 0.0025 0.5
0.0841772 0.0002775 -0.0025 0.5
0.067651 0.050505 -8.03104e-19 0.5
0.084455 0.000555 -0.0025 0.5
0.084455 0.000555 0.0025 0.5
0.0676438 0.0509177 -0.00185917 0.5
0.0676438 0.0509177 0.00185917 0.5
0.0676438 0.0509177 -0.0025 0.5
0.0676438 0.0509177 0.0025 0.5
0.0675531 0.05106 0.0025 0.5
0.0675531 0.05106 -0.0025 0.5
0.0847328 0.0002775 0.0025 0.5
0.0847328 0.0002775 -0.0025 0.5
0.0676333 0.0512128 0.00181192 0.5
0.0676333 0.0512128 -0.00181192 0.5
0.0676333 0.0512128 0.0025 0.5
0.0676333 0.0512128 -0.0025 0.5
0.0850106 0.0002775 0 0.5
0.067626 0.051615 2.15285e-18 0.5
0.0676176 0.0520015 -0.00174109 0.5
0.0676176 0.0520015 0.00174109 0.5
0.0852884 0.0002775 0.0025 0.5
0.0852884 0.0002775 -0.0025 0.5
0.0676176 0.0520015 0.0025 0.5
0.0676176 0.0520015 -0.0025 0.5
0.0675187 0.05217 0.0025 0.5
0.0675187 0.05217 -0.0025 0.5
0.0676018 0.0523542 -0.00167011 0.5
0.0676018 0.0523542 0.00167011 0.5
0.0676018 0.0523542 -0.0025 0.5
0.0676018 0.0523542 0.0025 0.5
0.0855663 0.000555 -0.0025 0.5
0.0855663 0.000555 0.0025 0.5
0.0675933 0.052725 -1.57927e-18 0.5
0.0858441 0.0002775 0.0025 0.5
0.0858441 0.0002775 -0.0025 0.5
0.0675839 0.0530779 -0.00158975 0.5
0.0675839 0.0530779 0.00158975 0.5
0.0675839 0.0530779 -0.0025 0.5
0.0675839 0.0530779 0.0025 0.5
0.067478 0.05328 0.0025 0.5
0.067478 0.05328 -0.0025 0.5
0.0861219 0.0002775 0 0.5
0.0675606 0.0535054 0.00148475 0.5
0.0675606 0.0535054 -0.00148475 0.5
0.0675606 0.0535054 0.0025 0.5
0.0675606 0.0535054 -0.0025 0.5
0.0675514 0.053835 -4.36309e-18 0.5
0.0863997 0.0002775 0.0025 0.5
0.0863997 0.0002775 -0.0025 0.5
0.0675418 0.0541458 0.00140018 0.5
0.0675418 0.0541458 -0.00140018 0.5
0.0675418 0.0541458 0.0025 0.5
0.0675418 0.0541458 -0.0025 0.5
0.0674321 0.05439 0.0025 0.5
0.0674321 0.05439 -0.0025 0.5
0.0866775 0.000555 -0.0025 0.5
0.0866775 0.000555 0.0025 0.5
0.0675088 0.0546671 0.00125159 0.5
0.0675088 0.0546671 -0.00125159 0.5
0.0675088 0.0546671 0.0025 0.5
0.0675088 0.0546671 -0.0025 0.5
0.0869553 0.0002775 0.0025 0.5
0.0869553 0.0002775 -0.0025 0.5
0.0674937 0.0551182 3.62644e-18 0.5
0.0674908 0.0552048 0.0025 0.5
0.0674908 0.0552048 -0.0025 0.5
0.0872331 0.0002775 0 0.5
0.0673829 0.0555 0.0025 0.5
0.0673829 0.0555 -0.0025 0.5
0.0875109 0.0002775 0.0025 0.5
0.0875109 0.0002775 -0.0025 0.5
0.0674454 0.0558404 0.0025 0.5
0.0674454 0.0558404 -0.0025 0.5
0.0674377 0.0560499 -2.58843e-18 0.5
0.0877888 0.000555 -0.0025 0.5
0.0877888 0.000555 0.0025 0.5
0.06743 0.0562542 0.0025 0.5
0.06743 0.0562542 -0.0025 0.5
0.0673322 0.05661 0.0025 0.5
0.0673322 0.05661 -0.0025 0.5
0.0880666 0.0002775 -0.00125 0.5
0.0880666 0.0002775 0.00125 0.5
0.0880666 0.0002775 0.0025 0.5
0.0880666 0.0002775 -0.0025 0.5
0.0673701 0.0570257 0.0025 0.5
0.0673701 0.0570257 -0.0025 0.5
0.0883444 0.0002775 0 0.5
0.0673646 0.0571615 8.93308e-19 0.5
0.0883444 0.00111 0.0025 0.5
0.0883444 0.00111 -0.0025 0.5
0.0883444 0.00222 0.0025 0.5
0.0883444 0.00222 -0.0025 0.5
0.0883444 0.00333 0.0025 0.5
0.0883444 0.00333 -0.0025 0.5
0.0673594 0.0572936 0.0025 0.5
0.0673594 0.0572936 -0.0025 0.5
0.0883444 0.00444 0.0025 0.5
0.0883444 0.00444 -0.0025 0.5
0.0883444 0.00555 0.0025 0.5
0.0883444 0.00555 -0.0025 0.5
0.0886222 0.000555 0 0.5
0.0883444 0.00666 0.0025 0.5
0.0883444 0.00666 -0.0025 0.5
0.0886222 0.0002775 -0.00125 0.5
0.0886222 0.0002775 0.00125 0.5
0.0886222 0.0008325 0.00125 0.5
0.0886222 0.0008325 -0.00125 0.5
0.0886222 0.001665 0 0.5
0.0886222 0.0002775 0.0025 0.5
0.0886222 0.0002775 -0.0025 0.5
0.0886222 0.0008325 0.0025 0.5
0.0886222 0.0008325 -0.0025 0.5
0.0886222 0.002775 0 0.5
0.0886222 0.0013875 0.0025 0.5
0.0886222 0.0013875 -0.0025 0.5
0.0886222 0.0019425 0.0025 0.5
0.0886222 0.0019425 -0.0025 0.5
0.0672821 0.05772 0.0025 0.5
0.0672821 0.05772 -0.0025 0.5
0.0886222 0.0024975 0.0025 0.5
0.0886222 0.0024975 -0.0025 0.5
0.0886222 0.003885 0 0.5
0.0886222 0.0030525 0.0025 0.5
0.0886222 0.0030525 -0.0025 0.5
0.0883444 0.00777 0.0025 0.5
0.0883444 0.00777 -0.0025 0.5
0.0886222 0.0036075 0.0025 0.5
0.0886222 0.0036075 -0.0025 0.5
0.0886222 0.0041625 0.0025 0.5
0.0886222 0.0041625 -0.0025 0.5
0.0886222 0.004995 -1.81603e-19 0.5
0.0886222 0.0047175 0.0025 0.5
0.0886222 0.0047175 -0.0025 0.5
0.0886222 0.0052725 0.0025 0.5
0.0886222 0.0052725 -0.0025 0.5
0.0883444 0.00888 0.0025 0.5
0.0883444 0.00888 -0.0025 0.5
0.0886222 0.006105 -4.31797e-21 0.5
0.0886222 0.0058275 0.0025 0.5
0.0886222 0.0058275 -0.0025 0.5
0.0886222 0.0063825 0.0025 0.5
0.0886222 0.0063825 -0.0025 0.5
0.0886222 0.007215 3.76366e-21 0.5
0.0886222 0.0069375 -0.0025 0.5
0.0886222 0.0069375 0.0025 0.5
0.0883444 0.00999 0.0025 0.5
0.0883444 0.00999 -0.0025 0.5
0.0886222 0.0074925 -0.0025 0.5
0.0886222 0.0074925 0.0025 0.5
0.0672821 0.0582736 1.39146e-18 0.5
0.0672843 0.0582214 0.0025 0.5
0.0672843 0.0582214 -0.0025 0.5
0.0886222 0.008325 1.10296e-21 0.5
0.0886222 0.0080475 -0.0025 0.5
0.0886222 0.0080475 0.0025 0.5
0.0886222 0.0086025 -0.0025 0.5
0.0886222 0.0086025 0.0025 0.5
0.0883444 0.0111 0.0025 0.5
0.0883444 0.0111 -0.0025 0.5
0.06728 0.0583243 -0.0025 0.5
0.06728 0.0583243 0.0025 0.5
0.0886222 0.009435 1.92878e-21 0.5
0.0886222 0.0091575 0.0025 0.5
0.0886222 0.0091575 -0.0025 0.5
0.0886222 0.0097125 0.0025 0.5
0.0886222 0.0097125 -0.0025 0.5
0.0883444 0.01221 0.0025 0.5
0.0883444 0.01221 -0.0025 0.5
0.0886222 0.010545 3.88923e-21 0.5
0.0886222 0.0102675 0.0025 0.5
0.0886222 0.0102675 -0.0025 0.5
0.0886222 0.0108225 0.0025 0.5
0.0886222 0.0108225 -0.0025 0.5
0.0672339 0.05883 -0.0025 0.5
0.0672339 0.05883 0.0025 0.5
0.0883444 0.01332 0.0025 0.5
0.0883444 0.01332 -0.0025 0.5
0.0886222 0.0113775 0.0025 0.5
0.0886222 0.0113775 -0.0025 0.5
0.0886222 0.011655 2.78619e-21 0.5
0.0886222 0.0119325 0.0025 0.5
0.0886222 0.0119325 -0.0025 0.5
0.0886222 0.0124875 -0.0025 0.5
0.0886222 0.0124875 0.0025 0.5
0.0886222 0.012765 1.81655e-19 0.5
0.0883444 0.01443 0.0025 0.5
0.0883444 0.01443 -0.0025 0.5
0.0886222 0.0130425 -0.0025 0.5
0.0886222 0.0130425 0.0025 0.5
0.0671941 0.059349 1.41415e-18 0.5
0.0671928 0.0593473 0.0025 0.5
0.0671928 0.0593473 -0.0025 0.5
0.0886222 0.0135975 0.0025 0.5
0.0886222 0.0135975 -0.0025 0.5
0.0886222 0.013875 0 0.5
0.0671896 0.059426 0.0025 0.5
0.0671896 0.059426 -0.0025 0.5
0.0883444 0.01554 0.0025 0.5
0.0883444 0.01554 -0.0025 0.5
0.0886222 0.0141525 0.0025 0.5
0.0886222 0.0141525 -0.0025 0.5
0.0886222 0.0147075 -0.0025 0.5
0.0886222 0.0147075 0.0025 0.5
0.0886222 0.014985 7.52748e-21 0.5
0.0883444 0.01665 0.0025 0.5
0.0883444 0.01665 -0.0025 0.5
0.0886222 0.0152625 -0.0025 0.5
0.0886222 0.0152625 0.0025 0.5
0.0886222 0.0158175 0.0025 0.5
0.0886222 0.0158175 -0.0025 0.5
0.0886222 0.016095 0 0.5
0.0671862 0.05994 0.0025 0.5
0.0671862 0.05994 -0.0025 0.5
0.0883444 0.01776 0.0025 0.5
0.0883444 0.01776 -0.0025 0.5
0.0886222 0.0163725 0.0025 0.5
0.0886222 0.0163725 -0.0025 0.5
0.0886222 0.0169275 0.0025 0.5
0.0886222 0.0169275 -0.0025 0.5
0.0886222 0.017205 0 0.5
0.0671133 0.0603778 0.0025 0.5
0.0671133 0.0603778 -0.0025 0.5
0.0671089 0.0604979 -2.11952e-18 0.5
0.0886222 0.0174825 0.0025 0.5
0.0886222 0.0174825 -0.0025 0.5
0.0883444 0.01887 0.0025 0.5
0.0883444 0.01887 -0.0025 0.5
0.0671046 0.0606209 -0.0025 0.5
0.0671046 0.0606209 0.0025 0.5
0.0886222 0.0180375 0.0025 0.5
0.0886222 0.0180375 -0.0025 0.5
0.0886222 0.018315 -4.24739e-19 0.5
0.0886222 0.0185925 0.0025 0.5
0.0886222 0.0185925 -0.0025 0.5
0.0883444 0.01998 0.0025 0.5
0.0883444 0.01998 -0.0025 0.5
0.0886222 0.0191475 0.0025 0.5
0.0886222 0.0191475 -0.0025 0.5
0.0886222 0.019425 2.54579e-19 0.5
0.0671418 0.06105 0.0025 0.5
0.0671418 0.06105 -0.0025 0.5
0.0886222 0.0197025 0.0025 0.5
0.0886222 0.0197025 -0.0025 0.5
0.0883444 0.02109 0.0025 0.5
0.0883444 0.02109 -0.0025 0.5
0.0886222 0.0202575 0.0025 0.5
0.0886222 0.0202575 -0.0025 0.5
0.0886222 0.020535 -4.2863e-21 0.5
0.0670535 0.0614281 -0.0025 0.5
0.0670535 0.0614281 0.0025 0.5
0.0670483 0.0616084 2.24211e-18 0.5
0.0886222 0.0208125 0.0025 0.5
0.0886222 0.0208125 -0.0025 0.5
0.0883444 0.0222 0.0025 0.5
0.0883444 0.0222 -0.0025 0.5
0.0886222 0.0213675 0.0025 0.5
0.0886222 0.0213675 -0.0025 0.5
0.0670433 0.0617921 0.0025 0.5
0.0670433 0.0617921 -0.0025 0.5
0.0886222 0.021645 -2.44648e-21 0.5
0.0886222 0.0219225 0.0025 0.5
0.0886222 0.0219225 -0.0025 0.5
0.0883444 0.02331 0.0025 0.5
0.0883444 0.02331 -0.0025 0.5
0.0886222 0.0224775 0.0025 0.5
0.0886222 0.0224775 -0.0025 0.5
0.0886222 0.022755 -2.49561e-19 0.5
0.0671044 0.06216 0.0025 0.5
0.0671044 0.06216 -0.0025 0.5
0.0886222 0.0230325 0.0025 0.5
0.0886222 0.0230325 -0.0025 0.5
0.0670082 0.0624928 0.0025 0.5
0.0670082 0.0624928 -0.0025 0.5
0.0883444 0.02442 0.0025 0.5
0.0883444 0.02442 -0.0025 0.5
0.0886222 0.0235875 0.0025 0.5
0.0886222 0.0235875 -0.0025 0.5
0.067003 0.0627184 1.91189e-20 0.5
0.0886222 0.023865 4.33092e-19 0.5
0.0886222 0.0241425 0.0025 0.5
0.0886222 0.0241425 -0.0025 0.5
0.0669979 0.0629475 0.0025 0.5
0.0669979 0.0629475 -0.0025 0.5
0.0883444 0.02553 0.0025 0.5
0.0883444 0.02553 -0.0025 0.5
0.0886222 0.0246975 -0.0025 0.5
0.0886222 0.0246975 0.0025 0.5
0.0886222 0.024975 1.19177e-21 0.5
0.0886222 0.0252525 0.0025 0.5
0.0886222 0.0252525 -0.0025 0.5
0.0670728 0.06327 -0.0025 0.5
0.0670728 0.06327 0.0025 0.5
0.0883444 0.02664 0.0025 0.5
0.0883444 0.02664 -0.0025 0.5
0.0886222 0.0258075 0.0025 0.5
0.0886222 0.0258075 -0.0025 0.5
0.0669729 0.0635676 0.0025 0.5
0.0669729 0.0635676 -0.0025 0.5
0.0886222 0.026085 9.22105e-21 0.5
0.0886222 0.0263625 0.0025 0.5
0.0886222 0.0263625 -0.0025 0.5
0.0669675 0.0638287 4.11194e-20 0.5
0.0883444 0.02775 0.0025 0.5
0.0883444 0.02775 -0.0025 0.5
0.0886222 0.0269175 0.0025 0.5
0.0886222 0.0269175 -0.0025 0.5
0.0886222 0.027195 1.2044e-20 0.5
0.0669617 0.0640936 0.0025 0.5
0.0669617 0.0640936 -0.0025 0.5
0.0886222 0.0274725 0.0025 0.5
0.0886222 0.0274725 -0.0025 0.5
0.0883444 0.02886 0.0025 0.5
0.0883444 0.02886 -0.0025 0.5
0.0886222 0.0280275 0.0025 0.5
0.0886222 0.0280275 -0.0025 0.5
0.0670425 0.06438 0.0025 0.5
0.0670425 0.06438 -0.0025 0.5
0.0886222 0.028305 -8.22717e-21 0.5
0.0669398 0.0646445 -0.00130862 0.5
0.0669398 0.0646445 0.00130862 0.5
0.0669398 0.0646445 0.0025 0.5
0.0669398 0.0646445 -0.0025 0.5
0.0886222 0.0285825 0.0025 0.5
0.0886222 0.0285825 -0.0025 0.5
0.0886222 0.0291375 0.0025 0.5
0.0886222 0.0291375 -0.0025 0.5
0.0883444 0.02997 0.0025 0.5
0.0883444 0.02997 -0.0025 0.5
0.0886222 0.029415 -6.85063e-19 0.5
0.0669464 0.0651199 7.98754e-20 0.5
0.0669529 0.0652124 0.0025 0.5
0.0669529 0.0652124 -0.0025 0.5
0.0886222 0.0296925 0.0025 0.5
0.0886222 0.0296925 -0.0025 0.5
0.0886222 0.0302475 0.0025 0.5
0.0886222 0.0302475 -0.0025 0.5
0.0883444 0.03108 0.0025 0.5
0.0883444 0.03108 -0.0025 0.5
0.0886222 0.030525 6.22217e-19 0.5
0.0670805 0.06549 0.0025 0.5
0.0670805 0.06549 -0.0025 0.5
0.0886222 0.0308025 0.0025 0.5
0.0886222 0.0308025 -0.0025 0.5
0.0670582 0.0658727 -0.0025 0.5
0.0670582 0.0658727 0.0025 0.5
0.0886222 0.0313575 0.0025 0.5
0.0886222 0.0313575 -0.0025 0.5
0.0883444 0.03219 0.0025 0.5
0.0883444 0.03219 -0.0025 0.5
0.0886222 0.031635 -3.88923e-21 0.5
0.0671625 0.0660682 8.48661e-20 0.5
0.0886222 0.0319125 0.0025 0.5
0.0886222 0.0319125 -0.0025 0.5
0.0671526 0.0661229 0.0025 0.5
0.0671526 0.0661229 -0.0025 0.5
0.0673086 0.0661229 0.0025 0.5
0.0673086 0.0661229 -0.0025 0.5
0.0886222 0.0324675 0.0025 0.5
0.0886222 0.0324675 -0.0025 0.5
0.0883444 0.0333 0.0025 0.5
0.0883444 0.0333 -0.0025 0.5
0.0886222 0.032745 0 0.5
0.0677863 0.0659196 -0.0025 0.5
0.0677863 0.0659196 0.0025 0.5
0.0886222 0.0330225 0.0025 0.5