0 	506.15 	-4.55828e-06
0.000446734 	506.126 	-4.56392e-06
0.000893467 	506.103 	-4.56956e-06
0.0013402 	506.079 	-4.58074e-06
0.00178693 	506.056 	-4.5972e-06
0.00223367 	506.032 	-4.61383e-06
0.0026804 	506.009 	-4.63727e-06
0.00312714 	505.986 	-4.6607e-06
0.00357387 	505.963 	-4.6865e-06
0.0040206 	505.94 	-4.71432e-06
0.00446734 	505.917 	-4.7428e-06
0.00491407 	505.894 	-4.78364e-06
0.0053608 	505.872 	-4.82449e-06
0.00580754 	505.849 	-4.88191e-06
0.00625427 	505.827 	-4.95224e-06
0.00670101 	505.805 	-5.02556e-06
0.00714774 	505.784 	-5.13593e-06
0.00759447 	505.762 	-5.24629e-06
0.00804121 	505.741 	-5.37913e-06
0.00848794 	505.72 	-5.52776e-06
0.00893467 	505.7 	-5.6794e-06
0.00938141 	505.68 	-5.8581e-06
0.00982814 	505.66 	-6.0368e-06
0.0102749 	505.641 	-6.23037e-06
0.0107216 	505.622 	-6.43335e-06
0.0111683 	505.603 	-6.63957e-06
0.0116151 	505.585 	-6.86854e-06
0.0120618 	505.568 	-7.09751e-06
0.0125085 	505.551 	-7.34967e-06
0.0129553 	505.534 	-7.61503e-06
0.013402 	505.518 	-7.8885e-06
0.0138487 	505.503 	-8.20796e-06
0.0142955 	505.487 	-8.52741e-06
0.0147422 	505.473 	-8.8975e-06
0.0151889 	505.459 	-9.29338e-06
0.0156357 	505.446 	-9.70665e-06
0.0160824 	505.434 	-1.0202e-05
0.0165291 	505.421 	-1.06973e-05
0.0169759 	505.41 	-1.1274e-05
0.0174226 	505.399 	-1.18877e-05
0.0178693 	505.388 	-1.25271e-05
0.0183161 	505.379 	-1.32695e-05
0.0187628 	505.369 	-1.40119e-05
0.0192095 	505.361 	-1.4845e-05
0.0196563 	505.353 	-1.57147e-05
0.020103 	505.345 	-1.661e-05
0.0205497 	505.338 	-1.75933e-05
0.0209965 	505.331 	-1.85767e-05
0.0214432 	505.325 	-1.96261e-05
0.0218899 	505.319 	-2.0699e-05
0.0223367 	505.314 	-2.17865e-05
0.0227834 	505.309 	-2.29177e-05
0.0232302 	505.304 	-2.40489e-05
0.0236769 	505.3 	-2.51983e-05
0.0241236 	505.296 	-2.63533e-05
0.0245704 	505.292 	-2.75052e-05
0.0250171 	505.289 	-2.8649e-05
0.0254638 	505.286 	-2.97929e-05
0.0259106 	505.283 	-3.09019e-05
0.0263573 	505.28 	-3.20014e-05
0.026804 	505.278 	-3.30785e-05
0.0272508 	505.275 	-3.41033e-05
0.0276975 	505.273 	-3.5128e-05
0.0281442 	505.271 	-3.60696e-05
0.028591 	505.269 	-3.6992e-05
0.0290377 	505.268 	-3.78732e-05
0.0294844 	505.266 	-3.86686e-05
0.0299312 	505.265 	-3.94641e-05
0.0303779 	505.263 	-4.01349e-05
0.0308246 	505.262 	-4.07816e-05
0.0312714 	505.26 	-4.13695e-05
0.0317181 	505.259 	-4.18483e-05
0.0321648 	505.258 	-4.2327e-05
0.0326116 	505.257 	-4.26469e-05
0.0330583 	505.256 	-4.29414e-05
0.033505 	505.254 	-4.31619e-05
0.0339518 	505.253 	-4.32587e-05
0.0343985 	505.252 	-4.33556e-05
0.0348452 	505.251 	-4.32676e-05
0.035292 	505.25 	-4.31562e-05
0.0357387 	505.249 	-4.29584e-05
0.0361854 	505.247 	-4.26309e-05
0.0366322 	505.246 	-4.23035e-05
0.0370789 	505.245 	-4.17745e-05
0.0375256 	505.244 	-4.12262e-05
0.0379724 	505.242 	-4.05837e-05
0.0384191 	505.241 	-3.98138e-05
0.0388658 	505.24 	-3.90439e-05
0.0393126 	505.238 	-3.80697e-05
0.0397593 	505.237 	-3.70818e-05
0.040206 	505.235 	-3.59994e-05
0.0406528 	505.234 	-3.48015e-05
0.0410995 	505.232 	-3.36035e-05
0.0415462 	505.231 	-3.22158e-05
0.041993 	505.229 	-3.08207e-05
0.0424397 	505.227 	-2.93408e-05
0.0428864 	505.225 	-2.77671e-05
0.0433332 	505.223 	-2.61934e-05
0.0437799 	505.221 	-2.44679e-05
0.0442266 	505.219 	-2.27405e-05
0.0446734 	505.217 	-2.09522e-05
0.0451201 	505.215 	-1.91028e-05
0.0455668 	505.212 	-1.72525e-05
0.0460136 	505.21 	-1.53198e-05
0.0464603 	505.207 	-1.33871e-05
0.046907 	505.205 	-1.14344e-05
0.0473538 	505.202 	-9.4636e-06
0.0478005 	505.199 	-7.49325e-06
0.0482472 	505.196 	-5.53494e-06
0.048694 	505.193 	-3.57664e-06
0.0491407 	505.19 	-1.65513e-06
0.0495874 	505.187 	2.36279e-07
0.0500342 	505.184 	2.12004e-06
0.0504809 	505.18 	3.88916e-06
0.0509276 	505.177 	5.65827e-06
0.0513744 	505.173 	7.32673e-06
0.0518211 	505.169 	8.9208e-06
0.0522678 	505.166 	1.04956e-05
0.0527146 	505.162 	1.1869e-05
0.0531613 	505.158 	1.32424e-05
0.053608 	505.153 	1.44634e-05
0.0540548 	505.149 	1.55829e-05
0.0545015 	505.145 	1.6672e-05
0.0549482 	505.141 	1.75219e-05
0.055395 	505.136 	1.83717e-05
0.0558417 	505.131 	1.90566e-05
0.0562884 	505.127 	1.96426e-05
0.0567352 	505.122 	2.01962e-05
0.0571819 	505.117 	2.05466e-05
0.0576286 	505.112 	2.0897e-05
0.0580754 	505.107 	2.11251e-05
0.0585221 	505.102 	2.12874e-05
0.0589688 	505.097 	2.14285e-05
0.0594156 	505.092 	2.14605e-05
0.0598623 	505.087 	2.14926e-05
0.060309 	505.081 	2.14752e-05
0.0607558 	505.076 	2.14341e-05
0.0612025 	505.07 	2.13878e-05
0.0616492 	505.064 	2.13192e-05
0.062096 	505.059 	2.12505e-05
0.0625427 	505.053 	2.11827e-05
0.0629894 	505.047 	2.11153e-05
0.0634362 	505.041 	2.10509e-05
0.0638829 	505.034 	2.09976e-05
0.0643296 	505.028 	2.09442e-05
0.0647764 	505.022 	2.09029e-05
0.0652231 	505.015 	2.08662e-05
0.0656698 	505.009 	2.0833e-05
0.0661166 	505.002 	2.08112e-05
0.0665633 	504.995 	2.07894e-05
0.0670101 	504.984 	2.07783e-05
0.0674568 	504.973 	2.07708e-05
0.0679035 	504.955 	2.07683e-05
0.0683503 	504.922 	2.07801e-05
0.068797 	504.888 	2.0792e-05
0.0692437 	504.84 	2.1326e-05
0.0696905 	504.788 	2.20116e-05
0.0701372 	504.734 	2.28912e-05
0.0705839 	504.679 	2.42516e-05
0.0710307 	504.623 	2.56121e-05
0.0714774 	504.565 	2.69882e-05
0.0719241 	504.507 	2.83682e-05
0.0723709 	504.449 	2.97496e-05
0.0728176 	504.39 	3.1134e-05
0.0732643 	504.33 	3.25184e-05
0.0737111 	504.27 	3.38937e-05
0.0741578 	504.209 	3.52671e-05
0.0746045 	504.149 	3.66317e-05
0.0750513 	504.088 	3.79793e-05
0.075498 	504.027 	3.93269e-05
0.0759447 	503.965 	4.06408e-05
0.0763915 	503.904 	4.19488e-05
0.0768382 	503.842 	4.32378e-05
0.0772849 	503.78 	4.44931e-05
0.0777317 	503.718 	4.57485e-05
0.0781784 	503.656 	4.69466e-05
0.0786251 	503.594 	4.81366e-05
0.0790719 	503.532 	4.92964e-05
0.0795186 	503.469 	5.04086e-05
0.0799653 	503.407 	5.15207e-05
0.0804121 	503.344 	5.25518e-05
0.0808588 	503.282 	5.35738e-05
0.0813055 	503.219 	5.45536e-05
0.0817523 	503.156 	5.54733e-05
0.082199 	503.094 	5.6393e-05
0.0826457 	503.031 	5.7207e-05
0.0830925 	502.968 	5.80124e-05
0.0835392 	502.905 	5.87627e-05
0.0839859 	502.843 	5.94422e-05
0.0844327 	502.78 	6.01217e-05
0.0848794 	502.717 	6.06711e-05
0.0853261 	502.654 	6.12137e-05
0.0857729 	502.591 	6.16884e-05
0.0862196 	502.528 	6.20843e-05
0.0866663 	502.465 	6.24801e-05
0.0871131 	502.402 	6.27251e-05
0.0875598 	502.339 	6.29663e-05
0.0880065 	502.276 	6.31294e-05
0.0884533 	502.213 	6.32104e-05
0.0889 	502.15 	6.32914e-05
