0 	506.15 	2.16341e-05
0.000446734 	506.13 	2.162e-05
0.000893467 	506.109 	2.1606e-05
0.0013402 	506.089 	2.15797e-05
0.00178693 	506.069 	2.15418e-05
0.00223367 	506.049 	2.15037e-05
0.0026804 	506.029 	2.14562e-05
0.00312714 	506.009 	2.14088e-05
0.00357387 	505.989 	2.13675e-05
0.0040206 	505.969 	2.13314e-05
0.00446734 	505.949 	2.12965e-05
0.00491407 	505.93 	2.12827e-05
0.0053608 	505.91 	2.12688e-05
0.00580754 	505.891 	2.12616e-05
0.00625427 	505.872 	2.12596e-05
0.00670101 	505.853 	2.12567e-05
0.00714774 	505.834 	2.12426e-05
0.00759447 	505.815 	2.12285e-05
0.00804121 	505.797 	2.11955e-05
0.00848794 	505.779 	2.11491e-05
0.00893467 	505.761 	2.1099e-05
0.00938141 	505.743 	2.10158e-05
0.00982814 	505.725 	2.09326e-05
0.0102749 	505.708 	2.08319e-05
0.0107216 	505.691 	2.072e-05
0.0111683 	505.674 	2.06059e-05
0.0116151 	505.658 	2.0476e-05
0.0120618 	505.641 	2.0346e-05
0.0125085 	505.626 	2.02086e-05
0.0129553 	505.61 	2.0067e-05
0.013402 	505.594 	1.99238e-05
0.0138487 	505.58 	1.97717e-05
0.0142955 	505.565 	1.96196e-05
0.0147422 	505.551 	1.94586e-05
0.0151889 	505.537 	1.92931e-05
0.0156357 	505.523 	1.91242e-05
0.0160824 	505.51 	1.8939e-05
0.0165291 	505.497 	1.87539e-05
0.0169759 	505.485 	1.85491e-05
0.0174226 	505.473 	1.83354e-05
0.0178693 	505.461 	1.81137e-05
0.0183161 	505.45 	1.78601e-05
0.0187628 	505.439 	1.76065e-05
0.0192095 	505.429 	1.73153e-05
0.0196563 	505.419 	1.70088e-05
0.020103 	505.409 	1.66874e-05
0.0205497 	505.4 	1.63148e-05
0.0209965 	505.392 	1.59422e-05
0.0214432 	505.383 	1.55125e-05
0.0218899 	505.376 	1.50624e-05
0.0223367 	505.368 	1.45912e-05
0.0227834 	505.361 	1.40565e-05
0.0232302 	505.354 	1.35217e-05
0.0236769 	505.348 	1.29213e-05
0.0241236 	505.342 	1.23005e-05
0.0245704 	505.336 	1.16574e-05
0.0250171 	505.331 	1.09557e-05
0.0254638 	505.326 	1.02539e-05
0.0259106 	505.321 	9.4976e-06
0.0263573 	505.317 	8.72653e-06
0.026804 	505.313 	7.93961e-06
0.0272508 	505.309 	7.11571e-06
0.0276975 	505.305 	6.29182e-06
0.0281442 	505.302 	5.44102e-06
0.028591 	505.299 	4.58403e-06
0.0290377 	505.296 	3.72312e-06
0.0294844 	505.294 	2.85408e-06
0.0299312 	505.291 	1.98504e-06
0.0303779 	505.289 	1.1234e-06
0.0308246 	505.286 	2.63193e-07
0.0312714 	505.284 	-5.87035e-07
0.0317181 	505.282 	-1.41874e-06
0.0321648 	505.281 	-2.25043e-06
0.0326116 	505.279 	-3.04204e-06
0.0330583 	505.277 	-3.82725e-06
0.033505 	505.276 	-4.58895e-06
0.0339518 	505.274 	-5.31149e-06
0.0343985 	505.273 	-6.03403e-06
0.0348452 	505.272 	-6.68807e-06
0.035292 	505.271 	-7.33342e-06
0.0357387 	505.269 	-7.9427e-06
0.0361854 	505.268 	-8.49784e-06
0.0366322 	505.267 	-9.05298e-06
0.0370789 	505.266 	-9.51503e-06
0.0375256 	505.265 	-9.96815e-06
0.0379724 	505.264 	-1.03734e-05
0.0384191 	505.263 	-1.07137e-05
0.0388658 	505.262 	-1.10541e-05
0.0393126 	505.261 	-1.12796e-05
0.0397593 	505.26 	-1.14974e-05
0.040206 	505.259 	-1.1656e-05
0.0406528 	505.258 	-1.17423e-05
0.0410995 	505.257 	-1.18285e-05
0.0415462 	505.256 	-1.17803e-05
0.041993 	505.255 	-1.17269e-05
0.0424397 	505.254 	-1.16036e-05
0.0428864 	505.253 	-1.14031e-05
0.0433332 	505.252 	-1.12027e-05
0.0437799 	505.251 	-1.08507e-05
0.0442266 	505.25 	-1.04967e-05
0.0446734 	505.249 	-1.00632e-05
0.0451201 	505.248 	-9.55002e-06
0.0455668 	505.247 	-9.03482e-06
0.0460136 	505.245 	-8.35776e-06
0.0464603 	505.244 	-7.6807e-06
0.046907 	505.243 	-6.91611e-06
0.0473538 	505.242 	-6.07232e-06
0.0478005 	505.24 	-5.22225e-06
0.0482472 	505.239 	-4.21096e-06
0.048694 	505.237 	-3.19968e-06
0.0491407 	505.236 	-2.09705e-06
0.0495874 	505.235 	-9.19688e-07
0.0500342 	505.233 	2.67799e-07
0.0504809 	505.231 	1.60711e-06
0.0509276 	505.23 	2.94643e-06
0.0513744 	505.228 	4.37457e-06
0.0518211 	505.226 	5.86835e-06
0.0522678 	505.224 	7.37465e-06
0.0527146 	505.222 	9.0114e-06
0.0531613 	505.22 	1.06482e-05
0.053608 	505.218 	1.2361e-05
0.0540548 	505.216 	1.41245e-05
0.0545015 	505.214 	1.58999e-05
0.0549482 	505.212 	1.77687e-05
0.055395 	505.21 	1.96375e-05
0.0558417 	505.207 	2.15552e-05
0.0562884 	505.205 	2.35022e-05
0.0567352 	505.202 	2.54554e-05
0.0571819 	505.199 	2.74477e-05
0.0576286 	505.197 	2.944e-05
0.0580754 	505.194 	3.14368e-05
0.0585221 	505.191 	3.34362e-05
0.0589688 	505.188 	3.54297e-05
0.0594156 	505.185 	3.73935e-05
0.0598623 	505.182 	3.93573e-05
0.060309 	505.179 	4.12663e-05
0.0607558 	505.175 	4.31489e-05
0.0612025 	505.172 	4.50076e-05
0.0616492 	505.168 	4.67627e-05
0.062096 	505.165 	4.85179e-05
0.0625427 	505.161 	5.01528e-05
0.0629894 	505.157 	5.17362e-05
0.0634362 	505.153 	5.32748e-05
0.0638829 	505.149 	5.46478e-05
0.0643296 	505.145 	5.60207e-05
0.0647764 	505.141 	5.722e-05
0.0652231 	505.137 	5.83533e-05
0.0656698 	505.133 	5.94261e-05
0.0661166 	505.128 	6.03045e-05
0.0665633 	505.124 	6.11828e-05
0.0670101 	505.119 	6.18715e-05
0.0674568 	505.115 	6.2497e-05
0.0679035 	505.11 	6.30618e-05
0.0683503 	505.105 	6.34562e-05
0.068797 	505.1 	6.38506e-05
0.0692437 	505.095 	6.40969e-05
0.0696905 	505.091 	6.43001e-05
0.0701372 	505.086 	6.44634e-05
0.0705839 	505.08 	6.45279e-05
0.0710307 	505.075 	6.45923e-05
0.0714774 	505.07 	6.45896e-05
0.0719241 	505.065 	6.45701e-05
0.0723709 	505.06 	6.45391e-05
0.0728176 	505.054 	6.44827e-05
0.0732643 	505.049 	6.44262e-05
0.0737111 	505.043 	6.43658e-05
0.0741578 	505.038 	6.43045e-05
0.0746045 	505.032 	6.42469e-05
0.0750513 	505.026 	6.41968e-05
0.075498 	505.021 	6.41467e-05
0.0759447 	505.015 	6.41099e-05
0.0763915 	505.009 	6.40754e-05
0.0768382 	505.004 	6.40462e-05
0.0772849 	504.997 	6.40264e-05
0.0777317 	504.991 	6.40065e-05
0.0781784 	504.981 	6.39992e-05
0.0786251 	504.97 	6.39936e-05
0.0790719 	504.951 	6.39927e-05
0.0795186 	504.919 	6.39993e-05
0.0799653 	504.887 	6.40058e-05
0.0804121 	504.797 	6.42934e-05
0.0808588 	504.7 	6.46123e-05
0.0813055 	504.583 	6.50588e-05
0.0817523 	504.438 	6.56873e-05
0.082199 	504.293 	6.63157e-05
0.0826457 	504.149 	6.69298e-05
0.0830925 	504.005 	6.75427e-05
0.0835392 	503.862 	6.81328e-05
0.0839859 	503.719 	6.86938e-05
0.0844327 	503.576 	6.92547e-05
0.0848794 	503.433 	6.97356e-05
0.0853261 	503.29 	7.02123e-05
0.0857729 	503.148 	7.06368e-05
0.0862196 	503.005 	7.10006e-05
0.0866663 	502.862 	7.13645e-05
0.0871131 	502.72 	7.15962e-05
0.0875598 	502.577 	7.18246e-05
0.0880065 	502.435 	7.19796e-05
0.0884533 	502.292 	7.20575e-05
0.0889 	502.15 	7.21354e-05
