# f_l  POINT_DATA 1984
#  x  y  z  f_l
0.000375 0.000375 0 0.5
0.0015 0.00025 5.72608e-20 0.5
0.00025 0.0015 0 0.5
0.0025 0.00025 -1.6386e-20 0.5
0.00025 0.0025 1.89735e-19 0.5
0.00025 0.00025 0.0025 0.5
0.00025 0.00025 -0.0025 0.5
0.00075 0.00025 0.0025 0.5
0.00025 0.00075 0.0025 0.5
0.00025 0.00075 -0.0025 0.5
0.00075 0.00025 -0.0025 0.5
0.001 0.0005 -0.0025 0.5
0.001 0.0005 0.0025 0.5
0.0005 0.001 0.0025 0.5
0.0005 0.001 -0.0025 0.5
0.00125 0.00025 0.0025 0.5
0.00025 0.00125 -0.0025 0.5
0.00125 0.00025 -0.0025 0.5
0.00025 0.00125 0.0025 0.5
0.00175 0.00025 0.0025 0.5
0.00025 0.00175 -0.0025 0.5
0.00175 0.00025 -0.0025 0.5
0.00025 0.00175 0.0025 0.5
0.002 0.0005 -0.0025 0.5
0.002 0.0005 0.0025 0.5
0.0005 0.002 0.0025 0.5
0.0005 0.002 -0.0025 0.5
0.00025 0.00225 0.0025 0.5
0.00025 0.00225 -0.0025 0.5
0.00225 0.00025 0.0025 0.5
0.00225 0.00025 -0.0025 0.5
0.0035 0.00025 -1.38704e-19 0.5
0.00025 0.0035 -1.89735e-19 0.5
0.00025 0.00275 0.0025 0.5
0.00025 0.00275 -0.0025 0.5
0.00275 0.00025 0.0025 0.5
0.00275 0.00025 -0.0025 0.5
0.0005 0.003 -0.0025 0.5
0.003 0.0005 -0.0025 0.5
0.003 0.0005 0.0025 0.5
0.0005 0.003 0.0025 0.5
0.00025 0.00325 0.0025 0.5
0.00325 0.00025 0.0025 0.5
0.00025 0.00325 -0.0025 0.5
0.00325 0.00025 -0.0025 0.5
0.0045 0.00025 -5.72243e-20 0.5
0.00025 0.0045 0 0.5
0.00025 0.00375 0.0025 0.5
0.00375 0.00025 0.0025 0.5
0.00025 0.00375 -0.0025 0.5
0.00375 0.00025 -0.0025 0.5
0.004 0.0005 -0.0025 0.5
0.004 0.0005 0.0025 0.5
0.0005 0.004 0.0025 0.5
0.0005 0.004 -0.0025 0.5
0.00025 0.00425 0.0025 0.5
0.00425 0.00025 0.0025 0.5
0.00025 0.00425 -0.0025 0.5
0.00425 0.00025 -0.0025 0.5
0.00475 0.00025 0.0025 0.5
0.00475 0.00025 -0.0025 0.5
0.00025 0.00475 0.0025 0.5
0.00025 0.00475 -0.0025 0.5
0.00025 0.0055 0 0.5
0.0055 0.00025 -2.36936e-21 0.5
0.005 0.0005 -0.0025 0.5
0.005 0.0005 0.0025 0.5
0.0005 0.005 0.0025 0.5
0.0005 0.005 -0.0025 0.5
0.00025 0.00525 -0.0025 0.5
0.00525 0.00025 0.0025 0.5
0.00025 0.00525 0.0025 0.5
0.00525 0.00025 -0.0025 0.5
0.00025 0.00575 -0.0025 0.5
0.00575 0.00025 0.0025 0.5
0.00575 0.00025 -0.0025 0.5
0.00025 0.00575 0.0025 0.5
0.0065 0.00025 5.2773e-20 0.5
0.00025 0.0065 0 0.5
0.0005 0.006 0.0025 0.5
0.0005 0.006 -0.0025 0.5
0.006 0.0005 -0.0025 0.5
0.006 0.0005 0.0025 0.5
0.00625 0.00025 0.0025 0.5
0.00025 0.00625 0.0025 0.5
0.00025 0.00625 -0.0025 0.5
0.00625 0.00025 -0.0025 0.5
0.00025 0.00675 0.0025 0.5
0.00675 0.00025 0.0025 0.5
0.00025 0.00675 -0.0025 0.5
0.00675 0.00025 -0.0025 0.5
0.007 0.0005 -0.0025 0.5
0.0005 0.007 0.0025 0.5
0.0005 0.007 -0.0025 0.5
0.007 0.0005 0.0025 0.5
0.0075 0.00025 4.99235e-20 0.5
0.00025 0.0075 -2.43945e-19 0.5
0.00025 0.00725 0.0025 0.5
0.00025 0.00725 -0.0025 0.5
0.00725 0.00025 -0.0025 0.5
0.00725 0.00025 0.0025 0.5
0.00025 0.00775 0.0025 0.5
0.00025 0.00775 -0.0025 0.5
0.00775 0.00025 -0.0025 0.5
0.00775 0.00025 0.0025 0.5
0.008 0.0005 -0.0025 0.5
0.008 0.0005 0.0025 0.5
0.0005 0.008 0.0025 0.5
0.0005 0.008 -0.0025 0.5
0.0085 0.00025 -2.36936e-21 0.5
0.00025 0.0085 2.43945e-19 0.5
0.00025 0.00825 0.0025 0.5
0.00825 0.00025 0.0025 0.5
0.00025 0.00825 -0.0025 0.5
0.00825 0.00025 -0.0025 0.5
0.00875 0.00025 0.0025 0.5
0.00025 0.00875 -0.0025 0.5
0.00025 0.00875 0.0025 0.5
0.00875 0.00025 -0.0025 0.5
0.009 0.0005 -0.0025 0.5
0.009 0.0005 0.0025 0.5
0.0005 0.009 0.0025 0.5
0.0005 0.009 -0.0025 0.5
0.0095 0.00025 -8.67352e-20 0.5
0.00025 0.0095 0 0.5
0.00025 0.00925 -0.0025 0.5
0.00025 0.00925 0.0025 0.5
0.00925 0.00025 0.0025 0.5
0.00925 0.00025 -0.0025 0.5
0.00025 0.00975 0.0025 0.5
0.00975 0.00025 0.0025 0.5
0.00025 0.00975 -0.0025 0.5
0.00975 0.00025 -0.0025 0.5
0.01 0.0005 -0.0025 0.5
0.01 0.0005 0.0025 0.5
0.0005 0.01 0.0025 0.5
0.0005 0.01 -0.0025 0.5
0.00025 0.0105 0 0.5
0.0105 0.00025 -7.98788e-20 0.5
0.01025 0.00025 0.0025 0.5
0.00025 0.01025 -0.0025 0.5
0.00025 0.01025 0.0025 0.5
0.01025 0.00025 -0.0025 0.5
0.01075 0.00025 0.0025 0.5
0.00025 0.01075 -0.0025 0.5
0.00025 0.01075 0.0025 0.5
0.01075 0.00025 -0.0025 0.5
0.011 0.0005 -0.0025 0.5
0.011 0.0005 0.0025 0.5
0.0005 0.011 0.0025 0.5
0.0005 0.011 -0.0025 0.5
0.0115 0.00025 0 0.5
0.00025 0.0115 0 0.5
0.00025 0.01125 0.0025 0.5
0.01125 0.00025 0.0025 0.5
0.00025 0.01125 -0.0025 0.5
0.01125 0.00025 -0.0025 0.5
0.00025 0.01175 0.0025 0.5
0.01175 0.00025 0.0025 0.5
0.00025 0.01175 -0.0025 0.5
0.01175 0.00025 -0.0025 0.5
0.0005 0.012 0.0025 0.5
0.0005 0.012 -0.0025 0.5
0.012 0.0005 -0.0025 0.5
0.012 0.0005 0.0025 0.5
0.0125 0.00025 -6.56015e-22 0.5
0.00025 0.0125 0 0.5
0.01225 0.00025 0.0025 0.5
0.00025 0.01225 -0.0025 0.5
0.01225 0.00025 -0.0025 0.5
0.00025 0.01225 0.0025 0.5
0.01275 0.00025 0.0025 0.5
0.00025 0.01275 -0.0025 0.5
0.01275 0.00025 -0.0025 0.5
0.00025 0.01275 0.0025 0.5
0.013 0.0005 -0.0025 0.5
0.013 0.0005 0.0025 0.5
0.0005 0.013 0.0025 0.5
0.0005 0.013 -0.0025 0.5
0.01325 0.00025 0.0025 0.5
0.01325 0.00025 -0.0025 0.5
0.00025 0.01325 0.0025 0.5
0.00025 0.01325 -0.0025 0.5
0.00025 0.0135 0 0.5
0.0135 0.00025 0 0.5
0.01375 0.00025 0.0025 0.5
0.01375 0.00025 -0.0025 0.5
0.00025 0.01375 0.0025 0.5
0.00025 0.01375 -0.0025 0.5
0.014 0.0005 -0.0025 0.5
0.014 0.0005 0.0025 0.5
0.0005 0.014 0.0025 0.5
0.0005 0.014 -0.0025 0.5
0.00025 0.01425 0.0025 0.5
0.01425 0.00025 0.0025 0.5
0.00025 0.01425 -0.0025 0.5
0.01425 0.00025 -0.0025 0.5
0.00025 0.0145 0 0.5
0.0145 0.00025 -8.63823e-20 0.5
0.00025 0.01475 0.0025 0.5
0.01475 0.00025 0.0025 0.5
0.00025 0.01475 -0.0025 0.5
0.01475 0.00025 -0.0025 0.5
0.015 0.0005 -0.0025 0.5
0.015 0.0005 0.0025 0.5
0.0005 0.015 0.0025 0.5
0.0005 0.015 -0.0025 0.5
0.00025 0.01525 0.0025 0.5
0.01525 0.00025 0.0025 0.5
0.00025 0.01525 -0.0025 0.5
0.01525 0.00025 -0.0025 0.5
0.0155 0.00025 -7.83693e-20 0.5
0.00025 0.0155 0 0.5
0.00025 0.01575 0.0025 0.5
0.01575 0.00025 0.0025 0.5
0.00025 0.01575 -0.0025 0.5
0.01575 0.00025 -0.0025 0.5
0.016 0.0005 -0.0025 0.5
0.016 0.0005 0.0025 0.5
0.0005 0.016 0.0025 0.5
0.0005 0.016 -0.0025 0.5
0.00025 0.01625 0.0025 0.5
0.01625 0.00025 0.0025 0.5
0.00025 0.01625 -0.0025 0.5
0.01625 0.00025 -0.0025 0.5
0.0165 0.00025 2.36936e-21 0.5
0.00025 0.0165 0 0.5
0.00025 0.01675 0.0025 0.5
0.01675 0.00025 0.0025 0.5
0.00025 0.01675 -0.0025 0.5
0.01675 0.00025 -0.0025 0.5
0.017 0.0005 -0.0025 0.5
0.017 0.0005 0.0025 0.5
0.0005 0.017 0.0025 0.5
0.0005 0.017 -0.0025 0.5
0.01725 0.00025 0.0025 0.5
0.00025 0.01725 -0.0025 0.5
0.00025 0.01725 0.0025 0.5
0.01725 0.00025 -0.0025 0.5
0.0175 0.00025 -4.73871e-21 0.5
0.00025 0.0175 0 0.5
0.01775 0.00025 0.0025 0.5
0.00025 0.01775 -0.0025 0.5
0.00025 0.01775 0.0025 0.5
0.01775 0.00025 -0.0025 0.5
0.018 0.0005 -0.0025 0.5
0.018 0.0005 0.0025 0.5
0.0005 0.018 0.0025 0.5
0.0005 0.018 -0.0025 0.5
0.00025 0.01825 0.0025 0.5
0.00025 0.01825 -0.0025 0.5
0.01825 0.00025 0.0025 0.5
0.01825 0.00025 -0.0025 0.5
0.0185 0.00025 9.3497e-20 0.5
0.00025 0.0185 -4.33681e-19 0.5
0.00025 0.01875 0.0025 0.5
0.01875 0.00025 0.0025 0.5
0.00025 0.01875 -0.0025 0.5
0.01875 0.00025 -0.0025 0.5
0.019 0.0005 -0.0025 0.5
0.019 0.0005 0.0025 0.5
0.0005 0.019 0.0025 0.5
0.0005 0.019 -0.0025 0.5
0.00025 0.01925 0.0025 0.5
0.01925 0.00025 0.0025 0.5
0.00025 0.01925 -0.0025 0.5
0.01925 0.00025 -0.0025 0.5
0.0195 0.00025 1.73131e-19 0.5
0.00025 0.0195 4.33681e-19 0.5
0.00025 0.01975 0.0025 0.5
0.01975 0.00025 0.0025 0.5
0.00025 0.01975 -0.0025 0.5
0.01975 0.00025 -0.0025 0.5
0.0200725 0.0005 8.30771e-20 0.5
0.0005 0.02 0.0025 0.5
0.0005 0.02 -0.0025 0.5
0.02 0.000860183 -0.0025 0.5
0.02 0.000860183 0.0025 0.5
0.0201238 0.0015 7.96636e-20 0.5
0.0200894 0.000910621 -0.00205311 0.5
0.0200894 0.000910621 0.00205311 0.5
0.0201062 0.00110615 -0.00196924 0.5
0.0201062 0.00110615 0.00196924 0.5
0.0200894 0.000910621 0.0025 0.5
0.0200894 0.000910621 -0.0025 0.5
0.0201062 0.00110615 -0.0025 0.5
0.0201062 0.00110615 0.0025 0.5
0.0201349 0.00186513 -0.00182564 0.5
0.0201349 0.00186513 0.00182564 0.5
0.0201641 0.0025 -1.48235e-19 0.5
0.0201625 0.001 0.0025 0.5
0.0201625 0.001 -0.0025 0.5
0.0201529 0.00215287 -0.00173565 0.5
0.0201529 0.00215287 0.00173565 0.5
0.0201349 0.00186513 -0.0025 0.5
0.0201349 0.00186513 0.0025 0.5
0.00025 0.02025 0.0025 0.5
0.00025 0.02025 -0.0025 0.5
0.0201529 0.00215287 0.0025 0.5
0.0201529 0.00215287 -0.0025 0.5
0.0201769 0.00282312 -0.00161559 0.5
0.0201769 0.00282312 0.00161559 0.5
0.0202228 0.002 0.0025 0.5
0.0202228 0.002 -0.0025 0.5
0.00025 0.0205 0 0.5
0.0202087 0.0032087 -0.00145648 0.5
0.0202087 0.0032087 0.00145648 0.5
0.0202212 0.0035 -1.59834e-20 0.5
0.0201769 0.00282312 0.0025 0.5
0.0201769 0.00282312 -0.0025 0.5
0.0202087 0.0032087 -0.0025 0.5
0.0202087 0.0032087 0.0025 0.5
0.0202348 0.00376517 -0.00132583 0.5
0.0202348 0.00376517 0.00132583 0.5
0.0202769 0.003 0.0025 0.5
0.0202769 0.003 -0.0025 0.5
0.0202348 0.00376517 0.0025 0.5
0.0202348 0.00376517 -0.0025 0.5
0.0203036 0.00449213 -6.58364e-20 0.5
0.0203423 0.004 0.0025 0.5
0.0203423 0.004 -0.0025 0.5
0.0202917 0.00429174 0.0025 0.5
0.0202917 0.00429174 -0.0025 0.5
0.00025 0.02075 -0.0025 0.5
0.00025 0.02075 0.0025 0.5
0.0203154 0.00468464 0.0025 0.5
0.0203154 0.00468464 -0.0025 0.5
0.0204203 0.0054961 1.25441e-19 0.5
0.0005 0.021 0.0025 0.5
0.0005 0.021 -0.0025 0.5
0.0204173 0.005 0.0025 0.5
0.0204173 0.005 -0.0025 0.5
0.0204143 0.0054143 0.0025 0.5
0.0204143 0.0054143 -0.0025 0.5
0.020426 0.005574 0.0025 0.5
0.020426 0.005574 -0.0025 0.5
0.00025 0.02125 0.0025 0.5
0.00025 0.02125 -0.0025 0.5
0.00025 0.0215 0 0.5
0.020497 0.006 0.0025 0.5
0.020497 0.006 -0.0025 0.5
0.020564 0.0064632 1.09803e-19 0.5
0.0205644 0.0064356 0.0025 0.5
0.0205644 0.0064356 -0.0025 0.5
0.0205743 0.00657429 0.0025 0.5
0.0205743 0.00657429 -0.0025 0.5
0.0205738 0.007 0.0025 0.5
0.0205738 0.007 -0.0025 0.5
0.00025 0.02175 0.0025 0.5
0.00025 0.02175 -0.0025 0.5
0.0206805 0.00750641 4.11128e-22 0.5
0.0206707 0.00732931 -0.0025 0.5
0.0206707 0.00732931 0.0025 0.5
0.0005 0.022 0.0025 0.5
0.0005 0.022 -0.0025 0.5
0.0206899 0.00768992 -0.0025 0.5
0.0206899 0.00768992 0.0025 0.5
0.0206393 0.008 0.0025 0.5
0.0206393 0.008 -0.0025 0.5
0.0207448 0.00833911 -2.08798e-20 0.5
0.00025 0.02225 0.0025 0.5
0.00025 0.02225 -0.0025 0.5
0.0207413 0.00825867 0.0025 0.5
0.0207413 0.00825867 -0.0025 0.5
0.00025 0.0225 0 0.5
0.020758 0.00875803 -0.00129015 0.5
0.020758 0.00875803 0.00129015 0.5
0.020758 0.00875803 0.0025 0.5
0.020758 0.00875803 -0.0025 0.5
0.0206845 0.009 0.0025 0.5
0.0206845 0.009 -0.0025 0.5
0.0207799 0.00922008 0.00139961 0.5
0.0207799 0.00922008 -0.00139961 0.5
0.0207864 0.0095 -5.1796e-20 0.5
0.0207799 0.00922008 -0.0025 0.5
0.0207799 0.00922008 0.0025 0.5
0.00025 0.02275 0.0025 0.5
0.00025 0.02275 -0.0025 0.5
0.0207862 0.00978622 -0.00143111 0.5
0.0207862 0.00978622 0.00143111 0.5
0.0207862 0.00978622 0.0025 0.5
0.0207862 0.00978622 -0.0025 0.5
0.0207002 0.01 0.0025 0.5
0.0207002 0.01 -0.0025 0.5
0.0005 0.023 0.0025 0.5
0.0005 0.023 -0.0025 0.5
0.0207857 0.0102143 -0.00142847 0.5
0.0207857 0.0102143 0.00142847 0.5
0.0207855 0.0105 -9.48894e-20 0.5
0.0207857 0.0102143 -0.0025 0.5
0.0207857 0.0102143 0.0025 0.5
0.00025 0.02325 0.0025 0.5
0.00025 0.02325 -0.0025 0.5
0.0207786 0.0107786 -0.00139318 0.5
0.0207786 0.0107786 0.00139318 0.5
0.00025 0.0235 0 0.5
0.0207786 0.0107786 0.0025 0.5
0.0207786 0.0107786 -0.0025 0.5
0.0206825 0.011 0.0025 0.5
0.0206825 0.011 -0.0025 0.5
0.020755 0.011245 0.00127507 0.5
0.020755 0.011245 -0.00127507 0.5
0.020755 0.011245 0.0025 0.5
0.020755 0.011245 -0.0025 0.5
0.0207411 0.0116583 -7.643e-21 0.5
0.00025 0.02375 0.0025 0.5
0.00025 0.02375 -0.0025 0.5
0.0207375 0.0117375 0.0025 0.5
0.0207375 0.0117375 -0.0025 0.5
0.0206348 0.012 0.0025 0.5
0.0206348 0.012 -0.0025 0.5
0.0005 0.024 0.0025 0.5
0.0005 0.024 -0.0025 0.5
0.0206721 0.0124935 -4.98789e-19 0.5
0.0206817 0.0123183 0.0025 0.5
0.0206817 0.0123183 -0.0025 0.5
0.0206621 0.0126621 0.0025 0.5
0.0206621 0.0126621 -0.0025 0.5
0.00025 0.02425 0.0025 0.5
0.00025 0.02425 -0.0025 0.5
0.0205653 0.013 0.0025 0.5
0.0205653 0.013 -0.0025 0.5
0.00025 0.0245 0 0.5
0.0205461 0.0135246 6.78352e-19 0.5
0.0205539 0.0134461 -0.0025 0.5
0.0205539 0.0134461 0.0025 0.5
0.0205461 0.0135461 -0.0025 0.5
0.0205461 0.0135461 0.0025 0.5
0.00025 0.02475 0.0025 0.5
0.00025 0.02475 -0.0025 0.5
0.0204837 0.014 0.0025 0.5
0.0204837 0.014 -0.0025 0.5
0.0203943 0.0145052 6.71502e-20 0.5
0.020402 0.014402 -0.0025 0.5
0.020402 0.014402 0.0025 0.5
0.0005 0.025 0.0025 0.5
0.0005 0.025 -0.0025 0.5
0.0203864 0.0146136 -0.0025 0.5
0.0203864 0.0146136 0.0025 0.5
0.00025 0.02525 -0.0025 0.5
0.00025 0.02525 0.0025 0.5
0.0204008 0.015 0.0025 0.5
0.0204008 0.015 -0.0025 0.5
0.00025 0.0255 0 0.5
0.0202825 0.0155081 -7.15133e-20 0.5
0.0202948 0.0152948 0.0025 0.5
0.0202948 0.0152948 -0.0025 0.5
0.0202707 0.0157293 0.0025 0.5
0.0202707 0.0157293 -0.0025 0.5
0.00025 0.02575 -0.0025 0.5
0.00025 0.02575 0.0025 0.5
0.0202244 0.0162244 -0.00137809 0.5
0.0202244 0.0162244 0.00137809 0.5
0.0203292 0.016 0.0025 0.5
0.0203292 0.016 -0.0025 0.5
0.0202244 0.0162244 0.0025 0.5
0.0202244 0.0162244 -0.0025 0.5
0.0202121 0.0165 -1.17367e-21 0.5
0.0005 0.026 0.0025 0.5
0.0005 0.026 -0.0025 0.5
0.0202044 0.0167956 -0.00147797 0.5
0.0202044 0.0167956 0.00147797 0.5
0.00025 0.02625 0.0025 0.5
0.00025 0.02625 -0.0025 0.5
0.0202044 0.0167956 0.0025 0.5
0.0202044 0.0167956 -0.0025 0.5
0.00025 0.0265 0 0.5
0.0201847 0.0171847 0.00157634 0.5
0.0201847 0.0171847 -0.00157634 0.5
0.0202796 0.017 -0.0025 0.5
0.0202796 0.017 0.0025 0.5
0.0201847 0.0171847 0.0025 0.5
0.0201847 0.0171847 -0.0025 0.5
0.020177 0.0175 -4.68744e-21 0.5
0.00025 0.02675 0.0025 0.5
0.00025 0.02675 -0.0025 0.5
0.0201747 0.0178253 -0.00162672 0.5
0.0201747 0.0178253 0.00162672 0.5
0.0201747 0.0178253 0.0025 0.5
0.0201747 0.0178253 -0.0025 0.5
0.0005 0.027 0.0025 0.5
0.0005 0.027 -0.0025 0.5
0.0201698 0.0181698 -0.00165091 0.5
0.0201698 0.0181698 0.00165091 0.5
0.0202562 0.018 0.0025 0.5
0.0202562 0.018 -0.0025 0.5
0.0201698 0.0181698 0.0025 0.5
0.0201698 0.0181698 -0.0025 0.5
0.00025 0.02725 0.0025 0.5
0.00025 0.02725 -0.0025 0.5
0.0201675 0.0185 8.14458e-20 0.5
0.00025 0.0275 0 0.5
0.0201736 0.0188264 -0.00163187 0.5
0.0201736 0.0188264 0.00163187 0.5
0.0201736 0.0188264 0.0025 0.5
0.0201736 0.0188264 -0.0025 0.5
0.00025 0.02775 0.0025 0.5
0.00025 0.02775 -0.0025 0.5
0.020265 0.019 0.0025 0.5
0.020265 0.019 -0.0025 0.5
0.0201874 0.0191874 -0.001563 0.5
0.0201874 0.0191874 0.001563 0.5
0.0201874 0.0191874 0.0025 0.5
0.0201874 0.0191874 -0.0025 0.5
0.0201935 0.0195 -5.07319e-19 0.5
0.0005 0.028 0.0025 0.5
0.0005 0.028 -0.0025 0.5
0.020219 0.019781 -0.00140523 0.5
0.020219 0.019781 0.00140523 0.5
0.00025 0.02825 0.0025 0.5
0.00025 0.02825 -0.0025 0.5
0.020219 0.019781 -0.0025 0.5
0.020219 0.019781 0.0025 0.5
0.00025 0.0285 0 0.5
0.0203443 0.02 0.0025 0.5
0.0203443 0.02 -0.0025 0.5
0.020328 0.020328 0.0025 0.5
0.020328 0.020328 -0.0025 0.5
0.00025 0.02875 0.0025 0.5
0.00025 0.02875 -0.0025 0.5
0.0203689 0.0205122 4.66857e-19 0.5
0.0203888 0.0206112 0.0025 0.5
0.0203888 0.0206112 -0.0025 0.5
0.0005 0.029 0.0025 0.5
0.0005 0.029 -0.0025 0.5
0.00025 0.02925 0.0025 0.5
0.00025 0.02925 -0.0025 0.5
0.00025 0.0295 -1.6263e-19 0.5
0.0206316 0.021 -0.0025 0.5
0.0206316 0.021 0.0025 0.5
0.0208287 0.0211713 0.00164346 0.5
0.0208287 0.0211713 -0.00164346 0.5
0.0208287 0.0211713 0.0025 0.5
0.0208287 0.0211713 -0.0025 0.5
0.00025 0.02975 0.0025 0.5
0.00025 0.02975 -0.0025 0.5
0.0209141 0.0215 5.22228e-21 0.5
0.0005 0.03 0.0025 0.5
0.0005 0.03 -0.0025 0.5
0.00025 0.03025 0.0025 0.5
0.00025 0.03025 -0.0025 0.5
0.00025 0.0305 0 0.5
0.021 0.0219843 0.0025 0.5
0.021 0.0219843 -0.0025 0.5
0.0210029 0.0219971 -0.00248542 0.5
0.0210029 0.0219971 0.00248542 0.5
0.0210029 0.0219971 -0.0025 0.5
0.0210029 0.0219971 0.0025 0.5
0.0210043 0.0220043 -0.00247873 0.5
0.0210043 0.0220043 0.00247873 0.5
0.0210063 0.022 0.0025 0.5
0.0210063 0.022 -0.0025 0.5
0.0210043 0.0220043 0.0025 0.5
0.0210043 0.0220043 -0.0025 0.5
0.021094 0.0225 3.9772e-19 0.5
0.00025 0.03075 0.0025 0.5
0.00025 0.03075 -0.0025 0.5
0.0005 0.031 0.0025 0.5
0.0005 0.031 -0.0025 0.5
0.021199 0.022801 -0.00150506 0.5
0.021199 0.022801 0.00150506 0.5
0.021199 0.022801 0.0025 0.5
0.021199 0.022801 -0.0025 0.5
0.00025 0.03125 0.0025 0.5
0.00025 0.03125 -0.0025 0.5
0.00025 0.0315 0 0.5
0.0214518 0.023 0.0025 0.5
0.0214518 0.023 -0.0025 0.5
0.0217123 0.0232729 -3.81765e-19 0.5
0.00025 0.03175 0.0025 0.5
0.00025 0.03175 -0.0025 0.5
0.0217361 0.0232639 -0.0025 0.5
0.0217361 0.0232639 0.0025 0.5
0.0005 0.032 0.0025 0.5
0.0005 0.032 -0.0025 0.5
0.00025 0.03225 0.0025 0.5
0.00025 0.03225 -0.0025 0.5
0.00025 0.0325 0 0.5
0.0219647 0.0239647 -0.00232339 0.5
0.0219647 0.0239647 0.00232339 0.5
0.0219647 0.0239647 0.0025 0.5
0.0219647 0.0239647 -0.0025 0.5
0.021959 0.024 0.0025 0.5
0.021959 0.024 -0.0025 0.5
0.021982 0.024018 0.00241011 0.5
0.021982 0.024018 -0.00241011 0.5
0.021982 0.024018 0.0025 0.5
0.021982 0.024018 -0.0025 0.5
0.022 0.0240718 -0.0025 0.5
0.022 0.0240718 0.0025 0.5
0.00025 0.03275 0.0025 0.5
0.00025 0.03275 -0.0025 0.5
0.0221098 0.0245 0 0.5
0.0005 0.033 0.0025 0.5
0.0005 0.033 -0.0025 0.5
0.022215 0.024785 -0.00142525 0.5
0.022215 0.024785 0.00142525 0.5
0.00025 0.03325 0.0025 0.5
0.00025 0.03325 -0.0025 0.5
0.022215 0.024785 0.0025 0.5
0.022215 0.024785 -0.0025 0.5
0.00025 0.0335 0 0.5
0.0224825 0.025 0.0025 0.5
0.0224825 0.025 -0.0025 0.5
0.00025 0.03375 0.0025 0.5
0.00025 0.03375 -0.0025 0.5
0.0226815 0.0252645 3.49085e-20 0.5
0.022762 0.025238 0.00131003 0.5
0.022762 0.025238 -0.00131003 0.5
0.022762 0.025238 -0.0025 0.5
0.022762 0.025238 0.0025 0.5
0.0005 0.034 0.0025 0.5
0.0005 0.034 -0.0025 0.5
0.00025 0.03425 0.0025 0.5
0.00025 0.03425 -0.0025 0.5
0.00025 0.0345 0 0.5
0.0229781 0.0259781 -0.00239051 0.5
0.0229781 0.0259781 0.00239051 0.5
0.0229781 0.0259781 0.0025 0.5
0.0229781 0.0259781 -0.0025 0.5
0.0229716 0.026 0.0025 0.5
0.0229716 0.026 -0.0025 0.5
0.0229873 0.0260127 0.00243642 0.5
0.0229873 0.0260127 -0.00243642 0.5
0.0229873 0.0260127 0.0025 0.5
0.0229873 0.0260127 -0.0025 0.5
0.00025 0.03475 0.0025 0.5
0.00025 0.03475 -0.0025 0.5
0.023 0.0260631 -0.0025 0.5
0.023 0.0260631 0.0025 0.5
0.0005 0.035 0.0025 0.5
0.0005 0.035 -0.0025 0.5
0.0230973 0.0265 0 0.5
0.00025 0.03525 0.0025 0.5
0.00025 0.03525 -0.0025 0.5
0.0231825 0.0268175 -0.00158728 0.5
0.0231825 0.0268175 0.00158728 0.5
0.00025 0.0355 0 0.5
0.0231825 0.0268175 0.0025 0.5
0.0231825 0.0268175 -0.0025 0.5
0.0233876 0.027 0.0025 0.5
0.0233876 0.027 -0.0025 0.5
0.00025 0.03575 0.0025 0.5
0.00025 0.03575 -0.0025 0.5
0.0005 0.036 0.0025 0.5
0.0005 0.036 -0.0025 0.5
0.02362 0.0273689 0 0.5
0.0236342 0.0273658 0.0025 0.5
0.0236342 0.0273658 -0.0025 0.5
0.00025 0.03625 0.0025 0.5
0.00025 0.03625 -0.0025 0.5
0.00025 0.0365 0 0.5
0.0237896 0.0277896 -0.00144818 0.5
0.0237896 0.0277896 0.00144818 0.5
0.0237896 0.0277896 0.0025 0.5
0.0237896 0.0277896 -0.0025 0.5
0.00025 0.03675 0.0025 0.5
0.00025 0.03675 -0.0025 0.5
0.0238317 0.028 0.0025 0.5
0.0238317 0.028 -0.0025 0.5
0.0239299 0.0280701 0.00214931 0.5
0.0239299 0.0280701 -0.00214931 0.5
0.0239299 0.0280701 0.0025 0.5
0.0239299 0.0280701 -0.0025 0.5
0.0005 0.037 0.0025 0.5
0.0005 0.037 -0.0025 0.5
0.0240327 0.0285 5.75842e-20 0.5
0.00025 0.03725 -0.0025 0.5
0.00025 0.03725 0.0025 0.5
0.024 0.0284975 -0.0025 0.5
0.024 0.0284975 0.0025 0.5
0.00025 0.0375 -6.77626e-19 0.5
0.0240791 0.0289209 -0.00210463 0.5
0.0240791 0.0289209 0.00210463 0.5
0.0240791 0.0289209 -0.0025 0.5
0.0240791 0.0289209 0.0025 0.5
0.0241648 0.029 -0.0025 0.5
0.0241648 0.029 0.0025 0.5
0.00025 0.03775 0.0025 0.5
0.00025 0.03775 -0.0025 0.5
0.0241312 0.0291312 -0.00184417 0.5
0.0241312 0.0291312 0.00184417 0.5
0.0241312 0.0291312 -0.0025 0.5
0.0241312 0.0291312 0.0025 0.5
0.0005 0.038 0.0025 0.5
0.0005 0.038 -0.0025 0.5
0.0241833 0.0295 -1.01172e-19 0.5
0.00025 0.03825 0.0025 0.5
0.00025 0.03825 -0.0025 0.5
0.0242406 0.0297594 -0.0012972 0.5
0.0242406 0.0297594 0.0012972 0.5
0.0242406 0.0297594 0.0025 0.5
0.0242406 0.0297594 -0.0025 0.5
0.00025 0.0385 8.67362e-19 0.5
0.0244297 0.03 0.0025 0.5
0.0244297 0.03 -0.0025 0.5
0.00025 0.03875 0.0025 0.5
0.00025 0.03875 -0.0025 0.5
0.0005 0.039 0.0025 0.5
0.0005 0.039 -0.0025 0.5
0.0246211 0.0303789 -0.0025 0.5
0.0246211 0.0303789 0.0025 0.5
0.0246531 0.0304963 1.2297e-21 0.5
0.00025 0.03925 -0.0025 0.5
0.00025 0.03925 0.0025 0.5
0.00025 0.0395 0 0.5
0.0247382 0.0307382 -0.0025 0.5
0.0247382 0.0307382 0.0025 0.5
0.0247989 0.031 0.0025 0.5
0.0247989 0.031 -0.0025 0.5
0.00025 0.03975 -0.0025 0.5
0.00025 0.03975 0.0025 0.5
0.0249166 0.0310834 0.00208278 0.5
0.0249166 0.0310834 -0.00208278 0.5
0.0249166 0.0310834 0.0025 0.5
0.0249166 0.0310834 -0.0025 0.5
0.0005 0.04 0.0025 0.5
0.0005 0.04 -0.0025 0.5
0.0250041 0.0315 1.8931e-20 0.5
0.00025 0.04025 0.0025 0.5
0.00025 0.04025 -0.0025 0.5
0.00025 0.0405 6.77626e-19 0.5
0.025 0.0317861 0.0025 0.5
0.025 0.0317861 -0.0025 0.5
0.0250262 0.0319738 -0.00236875 0.5
0.0250262 0.0319738 0.00236875 0.5
0.0250262 0.0319738 0.0025 0.5
0.0250262 0.0319738 -0.0025 0.5
0.0250545 0.032 0.0025 0.5
0.0250545 0.032 -0.0025 0.5
0.0250319 0.0320319 -0.00234025 0.5
0.0250319 0.0320319 0.00234025 0.5
0.0250319 0.0320319 0.0025 0.5
0.0250319 0.0320319 -0.0025 0.5
0.00025 0.04075 0.0025 0.5
0.00025 0.04075 -0.0025 0.5
0.025056 0.0325 2.84315e-21 0.5
0.0005 0.041 -0.0025 0.5
0.0005 0.041 0.0025 0.5
0.00025 0.04125 0.0025 0.5
0.00025 0.04125 -0.0025 0.5
0.0250864 0.0329136 -0.00206791 0.5
0.0250864 0.0329136 0.00206791 0.5
0.0250864 0.0329136 0.0025 0.5
0.0250864 0.0329136 -0.0025 0.5
0.00025 0.0415 -6.77626e-19 0.5
0.0251668 0.033 0.0025 0.5
0.0251668 0.033 -0.0025 0.5
0.025119 0.033119 -0.00190513 0.5
0.025119 0.033119 0.00190513 0.5
0.025119 0.033119 0.0025 0.5
0.025119 0.033119 -0.0025 0.5
0.00025 0.04175 0.0025 0.5
0.00025 0.04175 -0.0025 0.5
0.0251518 0.0335 8.80309e-20 0.5
0.0005 0.042 0.0025 0.5
0.0005 0.042 -0.0025 0.5
0.0251749 0.0338251 -0.00162535 0.5
0.0251749 0.0338251 0.00162535 0.5
0.0251749 0.0338251 0.0025 0.5
0.0251749 0.0338251 -0.0025 0.5
0.00025 0.04225 0.0025 0.5
0.00025 0.04225 -0.0025 0.5
0.0252875 0.034 0.0025 0.5
0.0252875 0.034 -0.0025 0.5
0.00025 0.0425 0 0.5
0.0252383 0.0342383 -0.00130831 0.5
0.0252383 0.0342383 0.00130831 0.5
0.0252383 0.0342383 0.0025 0.5
0.0252383 0.0342383 -0.0025 0.5
0.00025 0.04275 0.0025 0.5
0.00025 0.04275 -0.0025 0.5
0.0252667 0.0346533 1.13375e-21 0.5
0.0252701 0.0347299 0.0025 0.5
0.0252701 0.0347299 -0.0025 0.5
0.0005 0.043 0.0025 0.5
0.0005 0.043 -0.0025 0.5
0.0253708 0.035 0.0025 0.5
0.0253708 0.035 -0.0025 0.5
0.00025 0.04325 0.0025 0.5
0.00025 0.04325 -0.0025 0.5
0.00025 0.0435 0 0.5
0.0253241 0.0353241 0.0025 0.5
0.0253241 0.0353241 -0.0025 0.5
0.0253297 0.0354972 -1.18426e-18 0.5
0.0253326 0.0356674 0.0025 0.5
0.0253326 0.0356674 -0.0025 0.5
0.00025 0.04375 0.0025 0.5
0.00025 0.04375 -0.0025 0.5
0.0005 0.044 0.0025 0.5
0.0005 0.044 -0.0025 0.5
0.0253997 0.036 0.0025 0.5
0.0253997 0.036 -0.0025 0.5
0.00025 0.04425 0.0025 0.5
0.00025 0.04425 -0.0025 0.5
0.0253334 0.0363334 0.0025 0.5
0.0253334 0.0363334 -0.0025 0.5
0.0253309 0.0365025 9.80314e-19 0.5
0.00025 0.0445 -8.67362e-19 0.5
0.0253259 0.0366741 0.0025 0.5
0.0253259 0.0366741 -0.0025 0.5
0.00025 0.04475 0.0025 0.5
0.00025 0.04475 -0.0025 0.5
0.0253739 0.037 0.0025 0.5
0.0253739 0.037 -0.0025 0.5
0.0005 0.045 0.0025 0.5
0.0005 0.045 -0.0025 0.5
0.0252726 0.0373504 -1.53915e-21 0.5
0.0252756 0.0372756 0.0025 0.5
0.0252756 0.0372756 -0.0025 0.5
0.00025 0.04525 0.0025 0.5
0.00025 0.04525 -0.0025 0.5
0.0252488 0.0377512 -0.00125602 0.5
0.0252488 0.0377512 0.00125602 0.5
0.0252488 0.0377512 0.0025 0.5
0.0252488 0.0377512 -0.0025 0.5
0.00025 0.0455 1.49078e-18 0.5
0.0253015 0.038 0.0025 0.5
0.0253015 0.038 -0.0025 0.5
0.0251906 0.0381906 -0.00154679 0.5
0.0251906 0.0381906 0.00154679 0.5
0.0251906 0.0381906 -0.0025 0.5
0.0251906 0.0381906 0.0025 0.5
0.00025 0.04575 0.0025 0.5
0.00025 0.04575 -0.0025 0.5
0.0251714 0.0385 1.04077e-18 0.5
0.0005 0.046 -0.0025 0.5
0.0005 0.046 0.0025 0.5
0.0251442 0.0388558 -0.0017789 0.5
0.0251442 0.0388558 0.0017789 0.5
0.00025 0.04625 0.0025 0.5
0.00025 0.04625 -0.0025 0.5
0.0251442 0.0388558 0.0025 0.5
0.0251442 0.0388558 -0.0025 0.5
0.0251984 0.039 0.0025 0.5
0.0251984 0.039 -0.0025 0.5
0.00025 0.0465 -8.67362e-19 0.5
0.0251083 0.0391083 -0.0019584 0.5
0.0251083 0.0391083 0.0019584 0.5
0.0251083 0.0391083 0.0025 0.5
0.0251083 0.0391083 -0.0025 0.5
0.0250823 0.0395 -8.39913e-19 0.5
0.00025 0.04675 0.0025 0.5
0.00025 0.04675 -0.0025 0.5
0.0005 0.047 0.0025 0.5
0.0005 0.047 -0.0025 0.5
0.0250569 0.0399431 -0.00221541 0.5
0.0250569 0.0399431 0.00221541 0.5
0.0250569 0.0399431 0.0025 0.5
0.0250569 0.0399431 -0.0025 0.5
0.0250921 0.04 0.0025 0.5
0.0250921 0.04 -0.0025 0.5
0.0250458 0.0400458 -0.00227111 0.5
0.0250458 0.0400458 0.00227111 0.5
0.0250458 0.0400458 0.0025 0.5
0.0250458 0.0400458 -0.0025 0.5
0.00025 0.04725 0.0025 0.5
0.00025 0.04725 -0.0025 0.5
0.00025 0.0475 0 0.5
0.0250224 0.0405 -5.96341e-20 0.5
0.025 0.0405759 0.0025 0.5
0.025 0.0405759 -0.0025 0.5
0.00025 0.04775 0.0025 0.5
0.00025 0.04775 -0.0025 0.5
0.0249682 0.0409682 0.00234117 0.5
0.0249682 0.0409682 -0.00234117 0.5
0.0249682 0.0409682 0.0025 0.5
0.0249682 0.0409682 -0.0025 0.5
0.0249307 0.041 0.0025 0.5
0.0249307 0.041 -0.0025 0.5
0.0005 0.048 0.0025 0.5
0.0005 0.048 -0.0025 0.5
0.0249523 0.0410477 0.00226135 0.5
0.0249523 0.0410477 -0.00226135 0.5
0.0249523 0.0410477 0.0025 0.5
0.0249523 0.0410477 -0.0025 0.5
0.00025 0.04825 0.0025 0.5
0.00025 0.04825 -0.0025 0.5
0.0248913 0.0415 -9.27315e-19 0.5
0.00025 0.0485 0 0.5
0.0248206 0.0418206 -0.00160314 0.5
0.0248206 0.0418206 0.00160314 0.5
0.0248206 0.0418206 0.0025 0.5
0.0248206 0.0418206 -0.0025 0.5
0.0246404 0.042 -0.0025 0.5
0.0246404 0.042 0.0025 0.5
0.00025 0.04875 0.0025 0.5
0.00025 0.04875 -0.0025 0.5
0.0244304 0.042497 1.31272e-18 0.5
0.0244436 0.0424436 0.0025 0.5
0.0244436 0.0424436 -0.0025 0.5
0.0005 0.049 0.0025 0.5
0.0005 0.049 -0.0025 0.5
0.0243988 0.0426012 0.0025 0.5
0.0243988 0.0426012 -0.0025 0.5
0.00025 0.04925 0.0025 0.5
0.00025 0.04925 -0.0025 0.5
0.0243205 0.043 -0.0025 0.5
0.0243205 0.043 0.0025 0.5
0.0241674 0.0431674 0.00166283 0.5
0.0241674 0.0431674 -0.00166283 0.5
0.00025 0.0495 0 0.5
0.0241674 0.0431674 0.0025 0.5
0.0241674 0.0431674 -0.0025 0.5
0.024111 0.0435 2.10827e-18 0.5
0.00025 0.04975 0.0025 0.5
0.00025 0.04975 -0.0025 0.5
0.0005 0.05 0.0025 0.5
0.0005 0.05 -0.0025 0.5
0.0240571 0.0439429 -0.00221466 0.5
0.0240571 0.0439429 0.00221466 0.5
0.0240571 0.0439429 -0.0025 0.5
0.0240571 0.0439429 0.0025 0.5
0.0240828 0.044 -0.0025 0.5
0.0240828 0.044 0.0025 0.5
0.0240379 0.0440379 -0.00231049 0.5
0.0240379 0.0440379 0.00231049 0.5
0.0240379 0.0440379 -0.0025 0.5
0.0240379 0.0440379 0.0025 0.5
0.00025 0.05025 -0.0025 0.5
0.00025 0.05025 0.0025 0.5
0.024 0.0442271 -0.0025 0.5
0.024 0.0442271 0.0025 0.5
0.00025 0.0505 1.49078e-18 0.5
0.023991 0.0445 -1.96428e-18 0.5
0.00025 0.05075 -0.0025 0.5
0.00025 0.05075 0.0025 0.5
0.0238878 0.0448878 -0.00193886 0.5
0.0238878 0.0448878 0.00193886 0.5
0.0238878 0.0448878 0.0025 0.5
0.0238878 0.0448878 -0.0025 0.5
0.0237208 0.045 -0.0025 0.5
0.0237208 0.045 0.0025 0.5
0.0005 0.051 -0.0025 0.5
0.0005 0.051 0.0025 0.5
0.0234335 0.0455006 -1.24804e-18 0.5
0.0234492 0.0454492 -0.0025 0.5
0.0234492 0.0454492 0.0025 0.5
0.00025 0.05125 0.0025 0.5
0.00025 0.05125 -0.0025 0.5
0.0234021 0.0455979 -0.0025 0.5
0.0234021 0.0455979 0.0025 0.5
0.00025 0.0515 -1.49078e-18 0.5
0.0233347 0.046 0.0025 0.5
0.0233347 0.046 -0.0025 0.5
0.023183 0.046183 0.00158494 0.5
0.023183 0.046183 -0.00158494 0.5
0.023183 0.046183 0.0025 0.5
0.023183 0.046183 -0.0025 0.5
0.00025 0.05175 0.0025 0.5
0.00025 0.05175 -0.0025 0.5
0.023133 0.0465 9.99062e-19 0.5
0.0005 0.052 0.0025 0.5
0.0005 0.052 -0.0025 0.5
0.00025 0.05225 0.0025 0.5
0.00025 0.05225 -0.0025 0.5
0.0230854 0.0469146 -0.002073 0.5
0.0230854 0.0469146 0.002073 0.5
0.0230854 0.0469146 0.0025 0.5
0.0230854 0.0469146 -0.0025 0.5
0.0231194 0.047 0.0025 0.5
0.0231194 0.047 -0.0025 0.5
0.0230562 0.0470562 -0.0022189 0.5
0.0230562 0.0470562 0.0022189 0.5
0.0230562 0.0470562 0.0025 0.5
0.0230562 0.0470562 -0.0025 0.5
0.00025 0.0525 0 0.5
0.023 0.0473906 -0.0025 0.5
0.023 0.0473906 0.0025 0.5
0.0230148 0.0475 -5.98762e-20 0.5
0.00025 0.05275 0.0025 0.5
0.00025 0.05275 -0.0025 0.5
0.0005 0.053 0.0025 0.5
0.0005 0.053 -0.0025 0.5
0.0229215 0.0479215 -0.00210736 0.5
0.0229215 0.0479215 0.00210736 0.5
0.0229215 0.0479215 0.0025 0.5
0.0229215 0.0479215 -0.0025 0.5
0.022811 0.048 0.0025 0.5
0.022811 0.048 -0.0025 0.5
0.00025 0.05325 0.0025 0.5
0.00025 0.05325 -0.0025 0.5
0.0227572 0.0482428 0.00128592 0.5
0.0227572 0.0482428 -0.00128592 0.5
0.0227572 0.0482428 0.0025 0.5
0.0227572 0.0482428 -0.0025 0.5
0.00025 0.0535 0 0.5
0.0226142 0.0486382 5.36153e-20 0.5
0.0226301 0.0486301 0.0025 0.5
0.0226301 0.0486301 -0.0025 0.5
0.00025 0.05375 0.0025 0.5
0.00025 0.05375 -0.0025 0.5
0.0224388 0.049 0.0025 0.5
0.0224388 0.049 -0.0025 0.5
0.0222491 0.0492491 -0.0012544 0.5
0.0222491 0.0492491 0.0012544 0.5
0.0005 0.054 0.0025 0.5
0.0005 0.054 -0.0025 0.5
0.0222491 0.0492491 0.0025 0.5
0.0222491 0.0492491 -0.0025 0.5
0.0221935 0.0495 2.12465e-20 0.5
0.00025 0.05425 0.0025 0.5
0.00025 0.05425 -0.0025 0.5
0.00025 0.0545 0 0.5
0.0221473 0.0498527 -0.00176346 0.5
0.0221473 0.0498527 0.00176346 0.5
0.0221473 0.0498527 0.0025 0.5
0.0221473 0.0498527 -0.0025 0.5
0.0221846 0.05 0.0025 0.5
0.0221846 0.05 -0.0025 0.5
0.0220919 0.0500919 -0.0020405 0.5
0.0220919 0.0500919 0.0020405 0.5
0.0220919 0.0500919 0.0025 0.5
0.0220919 0.0500919 -0.0025 0.5
0.00025 0.05475 0.0025 0.5
0.00025 0.05475 -0.0025 0.5
0.0005 0.055 0.0025 0.5
0.0005 0.055 -0.0025 0.5
0.0220495 0.0505 0 0.5
0.00025 0.05525 0.0025 0.5
0.00025 0.05525 -0.0025 0.5
0.00025 0.0555 0 0.5
0.0220272 0.0509728 -0.00236377 0.5
0.0220272 0.0509728 0.00236377 0.5
0.0220272 0.0509728 0.0025 0.5
0.0220272 0.0509728 -0.0025 0.5
0.0220472 0.051 0.0025 0.5
0.0220472 0.051 -0.0025 0.5
0.0220227 0.0510227 -0.00238628 0.5
0.0220227 0.0510227 0.00238628 0.5
0.0220227 0.0510227 0.0025 0.5
0.0220227 0.0510227 -0.0025 0.5
0.00025 0.05575 0.0025 0.5