# f_l  POINT_DATA 1191
#  x  y  z  f_l
0.0708951 0.00222 0.0025 0.5
0.0708951 0.00222 -0.0025 0.5
0.0709598 0.001665 6.9019e-20 0.5
0.0709697 0.00206985 -0.00182363 0.5
0.0709697 0.00206985 0.00182363 0.5
0.0709714 0.00111 0.0025 0.5
0.0709714 0.00111 -0.0025 0.5
0.0709748 0.00236505 -0.00184661 0.5
0.0709748 0.00236505 0.00184661 0.5
0.0709849 0.002775 1.78675e-19 0.5
0.0709697 0.00206985 0.0025 0.5
0.0709697 0.00206985 -0.0025 0.5
0.0709243 0.00333 0.0025 0.5
0.0709243 0.00333 -0.0025 0.5
0.0710168 0.0012131 0.00203557 0.5
0.0710168 0.0012131 -0.00203557 0.5
0.0709748 0.00236505 0.0025 0.5
0.0709748 0.00236505 -0.0025 0.5
0.071026 0.00101609 -0.00207698 0.5
0.071026 0.00101609 0.00207698 0.5
0.0710168 0.0012131 0.0025 0.5
0.0710168 0.0012131 -0.0025 0.5
0.071026 0.00101609 0.0025 0.5
0.071026 0.00101609 -0.0025 0.5
0.0709907 0.00320085 0.00191826 0.5
0.0709907 0.00320085 -0.00191826 0.5
0.0710957 0.000555 2.43078e-19 0.5
0.0709931 0.00345677 0.00192899 0.5
0.0709931 0.00345677 -0.00192899 0.5
0.070999 0.003885 1.39109e-19 0.5
0.0709907 0.00320085 -0.0025 0.5
0.0709907 0.00320085 0.0025 0.5
0.0709931 0.00345677 0.0025 0.5
0.0709931 0.00345677 -0.0025 0.5
0.0709444 0.00444 0.0025 0.5
0.0709444 0.00444 -0.0025 0.5
0.0710044 0.00432451 0.00197978 0.5
0.0710044 0.00432451 -0.00197978 0.5
0.07112 0.000999325 0.0025 0.5
0.07112 0.000999325 -0.0025 0.5
0.0710062 0.00455366 0.00198803 0.5
0.0710062 0.00455366 -0.00198803 0.5
0.0710044 0.00432451 0.0025 0.5
0.0710044 0.00432451 -0.0025 0.5
0.0710117 0.004995 2.33079e-19 0.5
0.0710062 0.00455366 0.0025 0.5
0.0710062 0.00455366 -0.0025 0.5
0.0709651 0.00555 0.0025 0.5
0.0709651 0.00555 -0.0025 0.5
0.0710181 0.00544818 -0.00204135 0.5
0.0710181 0.00544818 0.00204135 0.5
0.0710181 0.00544818 0.0025 0.5
0.0710181 0.00544818 -0.0025 0.5
0.0710199 0.00565003 0.00204943 0.5
0.0710199 0.00565003 -0.00204943 0.5
0.0710199 0.00565003 0.0025 0.5
0.0710199 0.00565003 -0.0025 0.5
0.0710263 0.006105 1.56095e-19 0.5
0.0709896 0.00666 0.0025 0.5
0.0709896 0.00666 -0.0025 0.5
0.0710342 0.00657427 0.00211383 0.5
0.0710342 0.00657427 -0.00211383 0.5
0.0710342 0.00657427 0.0025 0.5
0.0710342 0.00657427 -0.0025 0.5
0.071036 0.00674392 0.00212197 0.5
0.071036 0.00674392 -0.00212197 0.5
0.071036 0.00674392 0.0025 0.5
0.071036 0.00674392 -0.0025 0.5
0.071044 0.007215 1.39282e-19 0.5
0.0710195 0.00777 0.0025 0.5
0.0710195 0.00777 -0.0025 0.5
0.0710539 0.00770393 -0.00220239 0.5
0.0710539 0.00770393 0.00220239 0.5
0.0714687 0.000348299 0.0025 0.5
0.0714687 0.000348299 -0.0025 0.5
0.0710539 0.00770393 0.0025 0.5
0.0710539 0.00770393 -0.0025 0.5
0.0710555 0.00783439 0.00220997 0.5
0.0710555 0.00783439 -0.00220997 0.5
0.0710555 0.00783439 0.0025 0.5
0.0710555 0.00783439 -0.0025 0.5
0.0710656 0.008325 1.67817e-19 0.5
0.0710562 0.00888 -0.0025 0.5
0.0710562 0.00888 0.0025 0.5
0.071078 0.00883801 -0.00231087 0.5
0.071078 0.00883801 0.00231087 0.5
0.071078 0.00883801 0.0025 0.5
0.071078 0.00883801 -0.0025 0.5
0.0710793 0.0089207 0.00231667 0.5
0.0710793 0.0089207 -0.00231667 0.5
0.0716756 0.000348299 1.38556e-19 0.5
0.0710793 0.0089207 0.0025 0.5
0.0710793 0.0089207 -0.0025 0.5
0.0710919 0.009435 -1.36321e-19 0.5
0.0711008 0.00999 0.0025 0.5
0.0711008 0.00999 -0.0025 0.5
0.0711074 0.0099774 -0.00244326 0.5
0.0711074 0.0099774 0.00244326 0.5
0.0711074 0.0099774 0.0025 0.5
0.0711074 0.0099774 -0.0025 0.5
0.0711078 0.0100021 -0.00244532 0.5
0.0711078 0.0100021 0.00244532 0.5
0.0711078 0.0100021 -0.0025 0.5
0.0711078 0.0100021 0.0025 0.5
0.0711237 0.010545 2.10336e-19 0.5
0.07112 0.0103867 -0.0025 0.5
0.07112 0.0103867 0.0025 0.5
0.0718826 0.000348299 0.0025 0.5
0.0718826 0.000348299 -0.0025 0.5
0.0711418 0.0110783 0.00240211 0.5
0.0711418 0.0110783 -0.00240211 0.5
0.0711418 0.0110783 0.0025 0.5
0.0711418 0.0110783 -0.0025 0.5
0.0711439 0.0111238 -0.0023926 0.5
0.0711439 0.0111238 0.0023926 0.5
0.0711439 0.0111238 0.0025 0.5
0.0711439 0.0111238 -0.0025 0.5
0.0711538 0.0111 0.0025 0.5
0.0711538 0.0111 -0.0025 0.5
0.0711623 0.011655 -2.14062e-19 0.5
0.0711819 0.0121481 0.00222127 0.5
0.0711819 0.0121481 -0.00222127 0.5
0.0711819 0.0121481 0.0025 0.5
0.0711819 0.0121481 -0.0025 0.5
0.0711891 0.012279 0.00218909 0.5
0.0711891 0.012279 -0.00218909 0.5
0.0722313 0.000594204 -0.0025 0.5
0.0722313 0.000594204 0.0025 0.5
0.0711891 0.012279 0.0025 0.5
0.0711891 0.012279 -0.0025 0.5
0.0712129 0.01221 0.0025 0.5
0.0712129 0.01221 -0.0025 0.5
0.071209 0.012765 2.66988e-19 0.5
0.0712299 0.0132102 -0.00200549 0.5
0.0712299 0.0132102 0.00200549 0.5
0.0712299 0.0132102 0.0025 0.5
0.0712299 0.0132102 -0.0025 0.5
0.071245 0.0134449 -0.0019375 0.5
0.071245 0.0134449 0.0019375 0.5
0.071245 0.0134449 -0.0025 0.5
0.071245 0.0134449 0.0025 0.5
0.0725091 0.0002775 0.0025 0.5
0.0725091 0.0002775 -0.0025 0.5
0.0712781 0.01332 0.0025 0.5
0.0712781 0.01332 -0.0025 0.5
0.0712659 0.013875 -1.77872e-19 0.5
0.071287 0.0142632 -0.00174875 0.5
0.071287 0.0142632 0.00174875 0.5
0.071287 0.0142632 0.0025 0.5
0.071287 0.0142632 -0.0025 0.5
0.0727869 0.0002775 1.145e-19 0.5
0.0713142 0.014624 -0.00162602 0.5
0.0713142 0.014624 0.00162602 0.5
0.0713489 0.01443 0.0025 0.5
0.0713489 0.01443 -0.0025 0.5
0.0713142 0.014624 0.0025 0.5
0.0713142 0.014624 -0.0025 0.5
0.0713347 0.014985 5.10765e-19 0.5
0.0713537 0.0153066 -0.00144859 0.5
0.0713537 0.0153066 0.00144859 0.5
0.0713537 0.0153066 0.0025 0.5
0.0713537 0.0153066 -0.0025 0.5
0.0730647 0.0002775 0.0025 0.5
0.0730647 0.0002775 -0.0025 0.5
0.0714225 0.01554 0.0025 0.5
0.0714225 0.01554 -0.0025 0.5
0.0713985 0.0158182 0.0025 0.5
0.0713985 0.0158182 -0.0025 0.5
0.0714151 0.0160841 -2.40418e-20 0.5
0.0714312 0.0163391 0.0025 0.5
0.0714312 0.0163391 -0.0025 0.5
0.0733425 0.000555 -0.0025 0.5
0.0733425 0.000555 0.0025 0.5
0.071496 0.01665 0.0025 0.5
0.071496 0.01665 -0.0025 0.5
0.0714977 0.0170273 0.0025 0.5
0.0714977 0.0170273 -0.0025 0.5
0.0715093 0.0171975 -3.03384e-20 0.5
0.0715204 0.0173601 0.0025 0.5
0.0715204 0.0173601 -0.0025 0.5
0.0736203 0.0002775 0.0025 0.5
0.0736203 0.0002775 -0.0025 0.5
0.0715682 0.01776 0.0025 0.5
0.0715682 0.01776 -0.0025 0.5
0.0738981 0.0002775 1.12679e-19 0.5
0.0716235 0.0183522 6.09602e-19 0.5
0.0716149 0.0182544 0.0025 0.5
0.0716149 0.0182544 -0.0025 0.5
0.0716233 0.0183672 0.0025 0.5
0.0716233 0.0183672 -0.0025 0.5
0.0716399 0.01887 -0.0025 0.5
0.0716399 0.01887 0.0025 0.5
0.0741759 0.0002775 0.0025 0.5
0.0741759 0.0002775 -0.0025 0.5
0.0717366 0.019427 -4.80232e-19 0.5
0.0717336 0.0193671 0.0025 0.5
0.0717336 0.0193671 -0.0025 0.5
0.0717397 0.019489 0.0025 0.5
0.0717397 0.019489 -0.0025 0.5
0.0717116 0.01998 0.0025 0.5
0.0717116 0.01998 -0.0025 0.5
0.0744538 0.000555 -0.0025 0.5
0.0744538 0.000555 0.0025 0.5
0.0718267 0.0203841 0.0025 0.5
0.0718267 0.0203841 -0.0025 0.5
0.071834 0.0205399 3.58344e-20 0.5
0.0747316 0.0002775 0.0025 0.5
0.0747316 0.0002775 -0.0025 0.5
0.0718415 0.0207007 0.0025 0.5
0.0718415 0.0207007 -0.0025 0.5
0.0717826 0.02109 0.0025 0.5
0.0717826 0.02109 -0.0025 0.5
0.0750094 0.0002775 1.14375e-19 0.5
0.0719061 0.0214148 -0.0025 0.5
0.0719061 0.0214148 0.0025 0.5
0.0719164 0.021652 1.05112e-19 0.5
0.0719271 0.0218962 0.0025 0.5
0.0719271 0.0218962 -0.0025 0.5
0.0718519 0.0222 0.0025 0.5
0.0718519 0.0222 -0.0025 0.5
0.0752872 0.0002775 0.0025 0.5
0.0752872 0.0002775 -0.0025 0.5
0.0719742 0.0224568 0.0013432 0.5
0.0719742 0.0224568 -0.0013432 0.5
0.0719742 0.0224568 0.0025 0.5
0.0719742 0.0224568 -0.0025 0.5
0.0719862 0.022755 -1.3273e-19 0.5
0.075565 0.000555 -0.0025 0.5
0.075565 0.000555 0.0025 0.5
0.0719988 0.0230778 -0.00145418 0.5
0.0719988 0.0230778 0.00145418 0.5
0.0719181 0.02331 0.0025 0.5
0.0719181 0.02331 -0.0025 0.5
0.0719988 0.0230778 0.0025 0.5
0.0719988 0.0230778 -0.0025 0.5
0.0720314 0.0235096 0.00160074 0.5
0.0720314 0.0235096 -0.00160074 0.5
0.0720314 0.0235096 0.0025 0.5
0.0720314 0.0235096 -0.0025 0.5
0.0758428 0.0002775 0.0025 0.5
0.0758428 0.0002775 -0.0025 0.5
0.0720443 0.023865 6.47723e-19 0.5
0.0720574 0.0242463 -0.00171767 0.5
0.0720574 0.0242463 0.00171767 0.5
0.0719793 0.02442 0.0025 0.5
0.0719793 0.02442 -0.0025 0.5
0.0720574 0.0242463 0.0025 0.5
0.0720574 0.0242463 -0.0025 0.5
0.0761206 0.0002775 1.14623e-19 0.5
0.072079 0.0245721 0.00181483 0.5
0.072079 0.0245721 -0.00181483 0.5
0.072079 0.0245721 0.0025 0.5
0.072079 0.0245721 -0.0025 0.5
0.0720919 0.024975 1.42688e-18 0.5
0.0763984 0.0002775 0.0025 0.5
0.0763984 0.0002775 -0.0025 0.5
0.0720342 0.02553 -0.0025 0.5
0.0720342 0.02553 0.0025 0.5
0.0721044 0.0254033 -0.00192946 0.5
0.0721044 0.0254033 0.00192946 0.5
0.0721044 0.0254033 0.0025 0.5
0.0721044 0.0254033 -0.0025 0.5
0.0721174 0.0256438 0.0019876 0.5
0.0721174 0.0256438 -0.0019876 0.5
0.0721174 0.0256438 0.0025 0.5
0.0721174 0.0256438 -0.0025 0.5
0.0721297 0.026085 -1.19923e-18 0.5
0.0766763 0.000555 -0.0025 0.5
0.0766763 0.000555 0.0025 0.5
0.0721183 0.02664 0.0025 0.5
0.0721183 0.02664 -0.0025 0.5
0.0721624 0.0265712 -0.0021901 0.5
0.0721624 0.0265712 0.0021901 0.5
0.0721624 0.0265712 0.0025 0.5
0.0721624 0.0265712 -0.0025 0.5
0.0721674 0.0267038 0.00221283 0.5
0.0721674 0.0267038 -0.00221283 0.5
0.0721674 0.0267038 0.0025 0.5
0.0721674 0.0267038 -0.0025 0.5
0.0769541 0.0002775 0.0025 0.5
0.0769541 0.0002775 -0.0025 0.5
0.0722026 0.027195 -4.24591e-19 0.5
0.0772319 0.0002775 1.08196e-19 0.5
0.0722312 0.0276834 -0.0025 0.5
0.0722312 0.0276834 0.0025 0.5
0.0722354 0.0277459 -0.00248145 0.5
0.0722354 0.0277459 0.00248145 0.5
0.0722354 0.0277459 0.0025 0.5
0.0722354 0.0277459 -0.0025 0.5
0.0722362 0.0277549 -0.00247776 0.5
0.0722362 0.0277549 0.00247776 0.5
0.0722362 0.0277549 0.0025 0.5
0.0722362 0.0277549 -0.0025 0.5
0.072239 0.02775 0.0025 0.5
0.072239 0.02775 -0.0025 0.5
0.0775097 0.0002775 0.0025 0.5
0.0775097 0.0002775 -0.0025 0.5
0.0722709 0.028305 8.34173e-19 0.5
0.0777875 0.000555 -0.0025 0.5
0.0777875 0.000555 0.0025 0.5
0.0722987 0.0287926 0.00219635 0.5
0.0722987 0.0287926 -0.00219635 0.5
0.0722987 0.0287926 0.0025 0.5
0.0722987 0.0287926 -0.0025 0.5
0.0723119 0.0289406 -0.00213694 0.5
0.0723119 0.0289406 0.00213694 0.5
0.0723119 0.0289406 0.0025 0.5
0.0723119 0.0289406 -0.0025 0.5
0.0723481 0.02886 0.0025 0.5
0.0723481 0.02886 -0.0025 0.5
0.0723407 0.029415 -6.48968e-19 0.5
0.0780653 0.0002775 0.0025 0.5
0.0780653 0.0002775 -0.0025 0.5
0.0723645 0.0298369 -0.00190059 0.5
0.0723645 0.0298369 0.00190059 0.5
0.0723645 0.0298369 0.0025 0.5
0.0723645 0.0298369 -0.0025 0.5
0.0783431 0.0002775 8.26565e-20 0.5
0.072391 0.0301295 -0.00178142 0.5
0.072391 0.0301295 0.00178142 0.5
0.0724437 0.02997 0.0025 0.5
0.0724437 0.02997 -0.0025 0.5
0.072391 0.0301295 0.0025 0.5
0.072391 0.0301295 -0.0025 0.5
0.0724147 0.030525 9.41899e-19 0.5
0.0786209 0.0002775 0.0025 0.5
0.0786209 0.0002775 -0.0025 0.5
0.07243 0.0308815 -0.00160584 0.5
0.07243 0.0308815 0.00160584 0.5
0.07243 0.0308815 0.0025 0.5
0.07243 0.0308815 -0.0025 0.5
0.0725208 0.03108 -0.0025 0.5
0.0725208 0.03108 0.0025 0.5
0.0788988 0.000555 -0.0025 0.5
0.0788988 0.000555 0.0025 0.5
0.0724633 0.0313118 -0.00145599 0.5
0.0724633 0.0313118 0.00145599 0.5
0.0724633 0.0313118 0.0025 0.5
0.0724633 0.0313118 -0.0025 0.5
0.0725019 0.0318168 2.33184e-19 0.5
0.0791766 0.0002775 0.0025 0.5
0.0791766 0.0002775 -0.0025 0.5
0.0725139 0.0319077 0.0025 0.5
0.0725139 0.0319077 -0.0025 0.5
0.0794544 0.0002775 9.54222e-20 0.5
0.0726451 0.03219 0.0025 0.5
0.0726451 0.03219 -0.0025 0.5
0.0797322 0.0002775 0.0025 0.5
0.0797322 0.0002775 -0.0025 0.5
0.0727275 0.0326856 0.0025 0.5
0.0727275 0.0326856 -0.0025 0.5
0.0727393 0.0327768 3.28382e-19 0.5
0.0727406 0.0327912 0.0025 0.5
0.0727406 0.0327912 -0.0025 0.5
0.08001 0.000555 -0.0025 0.5
0.08001 0.000555 0.0025 0.5
0.0727706 0.0333 0.0025 0.5
0.0727706 0.0333 -0.0025 0.5
0.0802878 0.0002775 0.0025 0.5
0.0802878 0.0002775 -0.0025 0.5
0.0728528 0.0338552 2.01666e-19 0.5
0.0728516 0.0337904 -0.0025 0.5
0.0728516 0.0337904 0.0025 0.5
0.0728521 0.0339201 -0.0025 0.5
0.0728521 0.0339201 0.0025 0.5
0.0727803 0.03441 -0.0025 0.5
0.0727803 0.03441 0.0025 0.5
0.0805656 0.0002775 1.15842e-19 0.5
0.0727622 0.0349623 3.29504e-19 0.5
0.0727591 0.0349373 -0.0025 0.5
0.0727591 0.0349373 0.0025 0.5
0.0727598 0.0349921 -0.0025 0.5
0.0727598 0.0349921 0.0025 0.5
0.0808434 0.0002775 0.0025 0.5
0.0808434 0.0002775 -0.0025 0.5
0.072789 0.03552 0.0025 0.5
0.072789 0.03552 -0.0025 0.5
0.0811213 0.000555 -0.0025 0.5
0.0811213 0.000555 0.0025 0.5
0.0728659 0.0359961 -0.0025 0.5
0.0728659 0.0359961 0.0025 0.5
0.0728696 0.0360774 1.70517e-19 0.5
0.0728731 0.0361611 -0.0025 0.5
0.0728731 0.0361611 0.0025 0.5
0.0813991 0.0002775 0.0025 0.5
0.0813991 0.0002775 -0.0025 0.5
0.0728464 0.03663 0.0025 0.5
0.0728464 0.03663 -0.0025 0.5
0.0816769 0.0002775 9.5745e-20 0.5
0.0729379 0.0370342 0.0025 0.5
0.0729379 0.0370342 -0.0025 0.5
0.0729431 0.0371884 1.21913e-18 0.5
0.0729481 0.0373461 0.0025 0.5
0.0729481 0.0373461 -0.0025 0.5
0.0819547 0.0002775 0.0025 0.5
0.0819547 0.0002775 -0.0025 0.5
0.0728919 0.03774 0.0025 0.5
0.0728919 0.03774 -0.0025 0.5
0.0822325 0.000555 -0.0025 0.5
0.0822325 0.000555 0.0025 0.5
0.0729916 0.0380905 0.0025 0.5
0.0729916 0.0380905 -0.0025 0.5
0.0729971 0.0382986 -1.65923e-18 0.5
0.0825103 0.0002775 0.0025 0.5
0.0825103 0.0002775 -0.0025 0.5
0.0730025 0.0385104 0.0025 0.5
0.0730025 0.0385104 -0.0025 0.5
0.0729297 0.03885 -0.0025 0.5
0.0729297 0.03885 0.0025 0.5
0.0827881 0.0002775 8.32524e-20 0.5
0.0730325 0.0391596 0.0025 0.5
0.0730325 0.0391596 -0.0025 0.5
0.0730378 0.0394084 1.0181e-18 0.5
0.0830659 0.0002775 0.0025 0.5
0.0830659 0.0002775 -0.0025 0.5
0.0730427 0.0396605 0.0025 0.5
0.0730427 0.0396605 -0.0025 0.5
0.0729604 0.03996 0.0025 0.5
0.0729604 0.03996 -0.0025 0.5
0.0833437 0.000555 -0.0025 0.5
0.0833437 0.000555 0.0025 0.5
0.0730631 0.0402391 -0.0025 0.5
0.0730631 0.0402391 0.0025 0.5
0.0730647 0.040331 1.6761e-19 0.5
0.0836216 0.0002775 0.0025 0.5
0.0836216 0.0002775 -0.0025 0.5
0.0730714 0.0407992 -0.00128016 0.5
0.0730714 0.0407992 0.00128016 0.5
0.0730714 0.0407992 -0.0025 0.5
0.0730714 0.0407992 0.0025 0.5
0.0729834 0.04107 0.0025 0.5
0.0729834 0.04107 -0.0025 0.5
0.0838994 0.0002775 3.228e-22 0.5
0.0730842 0.041328 0.00133771 0.5
0.0730842 0.041328 -0.00133771 0.5
0.0730842 0.041328 0.0025 0.5
0.0730842 0.041328 -0.0025 0.5
0.0730877 0.041625 -2.32212e-18 0.5
0.0841772 0.0002775 0.0025 0.5
0.0841772 0.0002775 -0.0025 0.5
0.0730899 0.0419276 0.00136325 0.5
0.0730899 0.0419276 -0.00136325 0.5
0.0730899 0.0419276 0.0025 0.5
0.0730899 0.0419276 -0.0025 0.5
0.0729983 0.04218 0.0025 0.5
0.0729983 0.04218 -0.0025 0.5
0.084455 0.000555 -0.0025 0.5
0.084455 0.000555 0.0025 0.5
0.0730968 0.0424254 0.00139455 0.5
0.0730968 0.0424254 -0.00139455 0.5
0.0730968 0.0424254 0.0025 0.5
0.0730968 0.0424254 -0.0025 0.5
0.073099 0.042735 2.69963e-18 0.5
0.0847328 0.0002775 0.0025 0.5
0.0847328 0.0002775 -0.0025 0.5
0.0731002 0.0430479 -0.00140967 0.5
0.0731002 0.0430479 0.00140967 0.5
0.0731002 0.0430479 0.0025 0.5
0.0731002 0.0430479 -0.0025 0.5
0.0730068 0.04329 0.0025 0.5
0.0730068 0.04329 -0.0025 0.5
0.0850106 0.0002775 0 0.5
0.0731039 0.0435283 -0.00142637 0.5
0.0731039 0.0435283 0.00142637 0.5
0.0731039 0.0435283 0.0025 0.5
0.0731039 0.0435283 -0.0025 0.5
0.0731051 0.043845 -1.06885e-18 0.5
0.0852884 0.0002775 0.0025 0.5
0.0852884 0.0002775 -0.0025 0.5
0.0731049 0.0441626 0.00143078 0.5
0.0731049 0.0441626 -0.00143078 0.5
0.0731049 0.0441626 0.0025 0.5
0.0731049 0.0441626 -0.0025 0.5
0.0730092 0.0444 0.0025 0.5
0.0730092 0.0444 -0.0025 0.5
0.0855663 0.000555 -0.0025 0.5
0.0855663 0.000555 0.0025 0.5
0.0731042 0.0446381 0.00142758 0.5
0.0731042 0.0446381 -0.00142758 0.5
0.0731042 0.0446381 0.0025 0.5
0.0731042 0.0446381 -0.0025 0.5
0.0731039 0.044955 1.42785e-18 0.5
0.0858441 0.0002775 0.0025 0.5
0.0858441 0.0002775 -0.0025 0.5
0.0731017 0.0452695 0.00141675 0.5
0.0731017 0.0452695 -0.00141675 0.5
0.0731017 0.0452695 0.0025 0.5
0.0731017 0.0452695 -0.0025 0.5
0.0730033 0.04551 0.0025 0.5
0.0730033 0.04551 -0.0025 0.5
0.0861219 0.0002775 0 0.5
0.073095 0.0457572 0.00138628 0.5
0.073095 0.0457572 -0.00138628 0.5
0.073095 0.0457572 0.0025 0.5
0.073095 0.0457572 -0.0025 0.5
0.0730928 0.046065 -2.43559e-18 0.5
0.0863997 0.0002775 0.0025 0.5
0.0863997 0.0002775 -0.0025 0.5
0.0730893 0.0463671 0.00136089 0.5
0.0730893 0.0463671 -0.00136089 0.5
0.0730893 0.0463671 0.0025 0.5
0.0730893 0.0463671 -0.0025 0.5
0.072989 0.04662 0.0025 0.5
0.072989 0.04662 -0.0025 0.5
0.0866775 0.000555 -0.0025 0.5
0.0866775 0.000555 0.0025 0.5
0.0730772 0.046885 0.00130639 0.5
0.0730772 0.046885 -0.00130639 0.5
0.0730772 0.046885 0.0025 0.5
0.0730772 0.046885 -0.0025 0.5
0.0730738 0.047175 2.74905e-18 0.5
0.0869553 0.0002775 0.0025 0.5
0.0869553 0.0002775 -0.0025 0.5
0.0730693 0.0474571 -0.00127077 0.5
0.0730693 0.0474571 0.00127077 0.5
0.0730693 0.0474571 0.0025 0.5
0.0730693 0.0474571 -0.0025 0.5
0.072968 0.04773 0.0025 0.5
0.072968 0.04773 -0.0025 0.5
0.0872331 0.0002775 0 0.5
0.0730511 0.0480211 0.0025 0.5
0.0730511 0.0480211 -0.0025 0.5
0.0875109 0.0002775 0.0025 0.5
0.0875109 0.0002775 -0.0025 0.5
0.0730465 0.0482819 2.7561e-20 0.5
0.0730417 0.0485395 0.0025 0.5
0.0730417 0.0485395 -0.0025 0.5
0.0729409 0.04884 0.0025 0.5
0.0729409 0.04884 -0.0025 0.5
0.0877888 0.000555 -0.0025 0.5
0.0877888 0.000555 0.0025 0.5
0.0730161 0.049166 0.0025 0.5
0.0730161 0.049166 -0.0025 0.5
0.0880666 0.0002775 -0.00125 0.5
0.0880666 0.0002775 0.00125 0.5
0.0880666 0.0002775 0.0025 0.5
0.0880666 0.0002775 -0.0025 0.5
0.0730112 0.0493917 1.67966e-19 0.5
0.0730061 0.049614 0.0025 0.5
0.0730061 0.049614 -0.0025 0.5
0.0883444 0.0002775 0 0.5
0.0883444 0.00111 0.0025 0.5
0.0883444 0.00111 -0.0025 0.5
0.0883444 0.00222 0.0025 0.5
0.0883444 0.00222 -0.0025 0.5
0.0729084 0.04995 0.0025 0.5
0.0729084 0.04995 -0.0025 0.5
0.0883444 0.00333 0.0025 0.5
0.0883444 0.00333 -0.0025 0.5
0.0883444 0.00444 0.0025 0.5
0.0883444 0.00444 -0.0025 0.5
0.0883444 0.00555 0.0025 0.5
0.0883444 0.00555 -0.0025 0.5
0.0886222 0.000555 0 0.5
0.0883444 0.00666 0.0025 0.5
0.0883444 0.00666 -0.0025 0.5
0.0886222 0.0002775 -0.00125 0.5
0.0886222 0.0002775 0.00125 0.5
0.0886222 0.0008325 0.00125 0.5
0.0886222 0.0008325 -0.00125 0.5
0.0886222 0.001665 0 0.5
0.0886222 0.0002775 0.0025 0.5
0.0886222 0.0002775 -0.0025 0.5
0.0886222 0.0008325 0.0025 0.5
0.0886222 0.0008325 -0.0025 0.5
0.0886222 0.002775 0 0.5
0.0886222 0.0013875 0.0025 0.5
0.0886222 0.0013875 -0.0025 0.5
0.0729714 0.0503207 -0.0025 0.5
0.0729714 0.0503207 0.0025 0.5
0.0886222 0.0019425 0.0025 0.5
0.0886222 0.0019425 -0.0025 0.5
0.0886222 0.0024975 0.0025 0.5
0.0886222 0.0024975 -0.0025 0.5
0.0886222 0.003885 0 0.5
0.0886222 0.0030525 0.0025 0.5
0.0886222 0.0030525 -0.0025 0.5
0.0883444 0.00777 0.0025 0.5
0.0883444 0.00777 -0.0025 0.5
0.0886222 0.0036075 0.0025 0.5
0.0886222 0.0036075 -0.0025 0.5
0.0729667 0.0505018 2.0191e-18 0.5
0.0886222 0.0041625 0.0025 0.5
0.0886222 0.0041625 -0.0025 0.5
0.0886222 0.004995 -1.81603e-19 0.5
0.0886222 0.0047175 0.0025 0.5
0.0886222 0.0047175 -0.0025 0.5
0.0886222 0.0052725 0.0025 0.5
0.0886222 0.0052725 -0.0025 0.5
0.0883444 0.00888 0.0025 0.5
0.0883444 0.00888 -0.0025 0.5
0.0886222 0.006105 -4.31797e-21 0.5
0.0886222 0.0058275 0.0025 0.5
0.0886222 0.0058275 -0.0025 0.5
0.0729619 0.0506798 0.0025 0.5
0.0729619 0.0506798 -0.0025 0.5
0.0886222 0.0063825 0.0025 0.5
0.0886222 0.0063825 -0.0025 0.5
0.0886222 0.007215 3.76366e-21 0.5
0.0886222 0.0069375 -0.0025 0.5
0.0886222 0.0069375 0.0025 0.5
0.0883444 0.00999 0.0025 0.5
0.0883444 0.00999 -0.0025 0.5
0.0886222 0.0074925 -0.0025 0.5
0.0886222 0.0074925 0.0025 0.5
0.0886222 0.008325 1.10296e-21 0.5
0.0728714 0.05106 0.0025 0.5
0.0728714 0.05106 -0.0025 0.5
0.0886222 0.0080475 -0.0025 0.5
0.0886222 0.0080475 0.0025 0.5
0.0886222 0.0086025 -0.0025 0.5
0.0886222 0.0086025 0.0025 0.5
0.0883444 0.0111 0.0025 0.5
0.0883444 0.0111 -0.0025 0.5
0.0886222 0.009435 1.92878e-21 0.5
0.0886222 0.0091575 0.0025 0.5
0.0886222 0.0091575 -0.0025 0.5
0.0886222 0.0097125 0.0025 0.5
0.0886222 0.0097125 -0.0025 0.5
0.0883444 0.01221 0.0025 0.5
0.0883444 0.01221 -0.0025 0.5
0.0886222 0.010545 3.88923e-21 0.5
0.0886222 0.0102675 0.0025 0.5
0.0886222 0.0102675 -0.0025 0.5
0.0729156 0.0514864 0.0025 0.5
0.0729156 0.0514864 -0.0025 0.5
0.0886222 0.0108225 0.0025 0.5
0.0886222 0.0108225 -0.0025 0.5
0.0729118 0.0516125 -3.00999e-18 0.5
0.0883444 0.01332 0.0025 0.5
0.0883444 0.01332 -0.0025 0.5
0.0886222 0.0113775 0.0025 0.5
0.0886222 0.0113775 -0.0025 0.5
0.0886222 0.011655 2.78619e-21 0.5
0.072908 0.051736 0.0025 0.5
0.072908 0.051736 -0.0025 0.5
0.0886222 0.0119325 0.0025 0.5
0.0886222 0.0119325 -0.0025 0.5
0.0886222 0.0124875 -0.0025 0.5
0.0886222 0.0124875 0.0025 0.5
0.0886222 0.012765 1.81655e-19 0.5
0.0883444 0.01443 0.0025 0.5
0.0883444 0.01443 -0.0025 0.5
0.0886222 0.0130425 -0.0025 0.5
0.0886222 0.0130425 0.0025 0.5
0.0728308 0.05217 0.0025 0.5
0.0728308 0.05217 -0.0025 0.5
0.0886222 0.0135975 0.0025 0.5
0.0886222 0.0135975 -0.0025 0.5
0.0886222 0.013875 0 0.5
0.0883444 0.01554 0.0025 0.5
0.0883444 0.01554 -0.0025 0.5
0.0886222 0.0141525 0.0025 0.5
0.0886222 0.0141525 -0.0025 0.5
0.0886222 0.0147075 -0.0025 0.5
0.0886222 0.0147075 0.0025 0.5
0.0886222 0.014985 7.52748e-21 0.5
0.0728457 0.0527237 1.49336e-18 0.5
0.0728477 0.0526642 0.0025 0.5
0.0728477 0.0526642 -0.0025 0.5
0.0883444 0.01665 0.0025 0.5
0.0883444 0.01665 -0.0025 0.5
0.0886222 0.0152625 -0.0025 0.5
0.0886222 0.0152625 0.0025 0.5
0.0728437 0.0527818 0.0025 0.5
0.0728437 0.0527818 -0.0025 0.5
0.0886222 0.0158175 0.0025 0.5
0.0886222 0.0158175 -0.0025 0.5
0.0886222 0.016095 0 0.5
0.0883444 0.01776 0.0025 0.5
0.0883444 0.01776 -0.0025 0.5
0.0886222 0.0163725 0.0025 0.5
0.0886222 0.0163725 -0.0025 0.5
0.0727875 0.05328 0.0025 0.5
0.0727875 0.05328 -0.0025 0.5
0.0886222 0.0169275 0.0025 0.5
0.0886222 0.0169275 -0.0025 0.5
0.0886222 0.017205 0 0.5
0.0886222 0.0174825 0.0025 0.5
0.0886222 0.0174825 -0.0025 0.5
0.0883444 0.01887 0.0025 0.5
0.0883444 0.01887 -0.0025 0.5
0.0886222 0.0180375 0.0025 0.5
0.0886222 0.0180375 -0.0025 0.5
0.0886222 0.018315 -4.24739e-19 0.5
0.0727687 0.0538156 2.849e-18 0.5
0.0727682 0.0538163 0.0025 0.5
0.0727682 0.0538163 -0.0025 0.5
0.0727665 0.0538554 0.0025 0.5
0.0727665 0.0538554 -0.0025 0.5
0.0886222 0.0185925 0.0025 0.5
0.0886222 0.0185925 -0.0025 0.5
0.0883444 0.01998 0.0025 0.5
0.0883444 0.01998 -0.0025 0.5
0.0886222 0.0191475 0.0025 0.5
0.0886222 0.0191475 -0.0025 0.5
0.0886222 0.019425 2.54579e-19 0.5
0.0886222 0.0197025 0.0025 0.5
0.0886222 0.0197025 -0.0025 0.5
0.0883444 0.02109 0.0025 0.5
0.0883444 0.02109 -0.0025 0.5
0.0727426 0.05439 -0.0025 0.5
0.0727426 0.05439 0.0025 0.5
0.0886222 0.0202575 0.0025 0.5
0.0886222 0.0202575 -0.0025 0.5
0.0886222 0.020535 -4.2863e-21 0.5
0.0886222 0.0208125 0.0025 0.5
0.0886222 0.0208125 -0.0025 0.5
0.0726946 0.0548529 0.0025 0.5
0.0726946 0.0548529 -0.0025 0.5
0.0726907 0.0549476 -4.32994e-18 0.5
0.0883444 0.0222 0.0025 0.5
0.0883444 0.0222 -0.0025 0.5
0.0886222 0.0213675 0.0025 0.5
0.0886222 0.0213675 -0.0025 0.5
0.0726867 0.055045 -0.0025 0.5
0.0726867 0.055045 0.0025 0.5
0.0886222 0.021645 -2.44648e-21 0.5
0.0886222 0.0219225 0.0025 0.5
0.0886222 0.0219225 -0.0025 0.5
0.0883444 0.02331 0.0025 0.5
0.0883444 0.02331 -0.0025 0.5
0.0886222 0.0224775 0.0025 0.5
0.0886222 0.0224775 -0.0025 0.5
0.0726976 0.0555 0.0025 0.5
0.0726976 0.0555 -0.0025 0.5
0.0886222 0.022755 -2.49561e-19 0.5
0.0886222 0.0230325 0.0025 0.5
0.0886222 0.0230325 -0.0025 0.5
0.0726309 0.0558992 -0.0025 0.5
0.0726309 0.0558992 0.0025 0.5
0.0883444 0.02442 0.0025 0.5
0.0883444 0.02442 -0.0025 0.5
0.0886222 0.0235875 0.0025 0.5
0.0886222 0.0235875 -0.0025 0.5
0.0726248 0.0560591 3.292e-18 0.5
0.0886222 0.023865 4.33092e-19 0.5
0.0726186 0.0562231 -0.0025 0.5
0.0726186 0.0562231 0.0025 0.5
0.0886222 0.0241425 0.0025 0.5
0.0886222 0.0241425 -0.0025 0.5
0.0883444 0.02553 0.0025 0.5
0.0883444 0.02553 -0.0025 0.5
0.0886222 0.0246975 -0.0025 0.5
0.0886222 0.0246975 0.0025 0.5
0.0886222 0.024975 1.19177e-21 0.5
0.0726537 0.05661 -0.0025 0.5
0.0726537 0.05661 0.0025 0.5
0.0886222 0.0252525 0.0025 0.5
0.0886222 0.0252525 -0.0025 0.5
0.0725762 0.0569546 0.0025 0.5
0.0725762 0.0569546 -0.0025 0.5
0.0883444 0.02664 0.0025 0.5
0.0883444 0.02664 -0.0025 0.5
0.0886222 0.0258075 0.0025 0.5
0.0886222 0.0258075 -0.0025 0.5
0.0886222 0.026085 9.22105e-21 0.5
0.0725688 0.0571699 -9.04508e-19 0.5
0.0886222 0.0263625 0.0025 0.5
0.0886222 0.0263625 -0.0025 0.5
0.0725615 0.0573901 0.0025 0.5
0.0725615 0.0573901 -0.0025 0.5
0.0883444 0.02775 0.0025 0.5
0.0883444 0.02775 -0.0025 0.5
0.0886222 0.0269175 0.0025 0.5
0.0886222 0.0269175 -0.0025 0.5
0.0886222 0.027195 1.2044e-20 0.5
0.0726124 0.05772 0.0025 0.5
0.0726124 0.05772 -0.0025 0.5
0.0886222 0.0274725 0.0025 0.5
0.0886222 0.0274725 -0.0025 0.5
0.0725303 0.0580187 0.0025 0.5
0.0725303 0.0580187 -0.0025 0.5
0.0883444 0.02886 0.0025 0.5
0.0883444 0.02886 -0.0025 0.5
0.0886222 0.0280275 0.0025 0.5
0.0886222 0.0280275 -0.0025 0.5
0.0886222 0.028305 -8.22717e-21 0.5
0.0725225 0.0582801 7.66815e-19 0.5
0.0886222 0.0285825 0.0025 0.5
0.0886222 0.0285825 -0.0025 0.5
0.0725149 0.0585466 0.0025 0.5
0.0725149 0.0585466 -0.0025 0.5
0.0886222 0.0291375 0.0025 0.5
0.0886222 0.0291375 -0.0025 0.5
0.0883444 0.02997 0.0025 0.5
0.0883444 0.02997 -0.0025 0.5
0.0886222 0.029415 -6.85063e-19 0.5
0.0725752 0.05883 0.0025 0.5
0.0725752 0.05883 -0.0025 0.5
0.0886222 0.0296925 0.0025 0.5
0.0886222 0.0296925 -0.0025 0.5
0.0724924 0.0590909 0.00132496 0.5
0.0724924 0.0590909 -0.00132496 0.5
0.0724924 0.0590909 0.0025 0.5
0.0724924 0.0590909 -0.0025 0.5
0.0886222 0.0302475 0.0025 0.5
0.0886222 0.0302475 -0.0025 0.5
0.0883444 0.03108 0.0025 0.5
0.0883444 0.03108 -0.0025 0.5
0.0724847 0.059385 -3.71639e-19 0.5
0.0886222 0.030525 6.22217e-19 0.5
0.0886222 0.0308025 0.0025 0.5
0.0886222 0.0308025 -0.0025 0.5
0.0724779 0.0596936 -0.00139013 0.5
0.0724779 0.0596936 0.00139013 0.5
0.0724779 0.0596936 -0.0025 0.5
0.0724779 0.0596936 0.0025 0.5
0.0886222 0.0313575 0.0025 0.5
0.0886222 0.0313575 -0.0025 0.5
0.0883444 0.03219 0.0025 0.5
0.0883444 0.03219 -0.0025 0.5
0.0886222 0.031635 -3.88923e-21 0.5
0.0725431 0.05994 0.0025 0.5
0.0725431 0.05994 -0.0025 0.5
0.072462 0.0601705 -0.00146171 0.5
0.072462 0.0601705 0.00146171 0.5
0.072462 0.0601705 -0.0025 0.5
0.072462 0.0601705 0.0025 0.5
0.0886222 0.0319125 0.0025 0.5
0.0886222 0.0319125 -0.0025 0.5
0.0724551 0.060495 -1.90292e-18 0.5
0.0886222 0.0324675 0.0025 0.5
0.0886222 0.0324675 -0.0025 0.5
0.0883444 0.0333 0.0025 0.5
0.0883444 0.0333 -0.0025 0.5
0.0886222 0.032745 0 0.5
0.0886222 0.0330225 0.0025 0.5
0.0886222 0.0330225 -0.0025 0.5
0.0724493 0.0608322 0.00151884 0.5
0.0724493 0.0608322 -0.00151884 0.5
0.0724493 0.0608322 0.0025 0.5
0.0724493 0.0608322 -0.0025 0.5
0.0886222 0.0335775 0.0025 0.5
0.0886222 0.0335775 -0.0025 0.5
0.0725165 0.06105 0.0025 0.5
0.0725165 0.06105 -0.0025 0.5
0.0883444 0.03441 0.0025 0.5
0.0883444 0.03441 -0.0025 0.5
0.0886222 0.033855 0 0.5
0.0724383 0.0612568 0.00156837 0.5
0.0724383 0.0612568 -0.00156837 0.5
0.0724383 0.0612568 0.0025 0.5
0.0724383 0.0612568 -0.0025 0.5
0.0886222 0.0341325 0.0025 0.5
0.0886222 0.0341325 -0.0025 0.5
0.0724325 0.061605 1.49023e-18 0.5
0.0886222 0.0346875 0.0025 0.5
0.0886222 0.0346875 -0.0025 0.5
0.0883444 0.03552 0.0025 0.5
0.0883444 0.03552 -0.0025 0.5
0.0886222 0.034965 -3.39789e-22 0.5
0.0724278 0.0619637 -0.00161563 0.5
0.0724278 0.0619637 0.00161563 0.5
0.0724278 0.0619637 0.0025 0.5
0.0724278 0.0619637 -0.0025 0.5
0.0886222 0.0352425 0.0025 0.5
0.0886222 0.0352425 -0.0025 0.5
0.0724954 0.06216 0.0025 0.5
0.0724954 0.06216 -0.0025 0.5
0.0724202 0.0623487 -0.0016499 0.5
0.0724202 0.0623487 0.0016499 0.5
0.0724202 0.0623487 0.0025 0.5
0.0724202 0.0623487 -0.0025 0.5
0.0886222 0.0357975 0.0025 0.5
0.0886222 0.0357975 -0.0025 0.5
0.0883444 0.03663 0.0025 0.5
0.0883444 0.03663 -0.0025 0.5
0.0886222 0.036075 1.76716e-21 0.5
0.0724155 0.062715 2.15296e-19 0.5
0.0886222 0.0363525 0.0025 0.5
0.0886222 0.0363525 -0.0025 0.5
0.0886222 0.0369075 0.0025 0.5
0.0886222 0.0369075 -0.0025 0.5
0.0724112 0.0630902 -0.00169026 0.5
0.0724112 0.0630902 0.00169026 0.5
0.0724112 0.0630902 0.0025 0.5
0.0724112 0.0630902 -0.0025 0.5
0.0883444 0.03774 0.0025 0.5
0.0883444 0.03774 -0.0025 0.5
0.0886222 0.037185 -6.78638e-19 0.5
0.0724778 0.06327 0.0025 0.5
0.0724778 0.06327 -0.0025 0.5
0.0886222 0.0374625 0.0025 0.5
0.0886222 0.0374625 -0.0025 0.5
0.0724052 0.0634437 -0.00171735 0.5
0.0724052 0.0634437 0.00171735 0.5
0.0724052 0.0634437 -0.0025 0.5
0.0724052 0.0634437 0.0025 0.5
0.0886222 0.0380175 -0.0025 0.5
0.0886222 0.0380175 0.0025 0.5
0.0724009 0.063825 9.56917e-20 0.5
0.0883444 0.03885 0.0025 0.5
0.0883444 0.03885 -0.0025 0.5
0.0886222 0.038295 1.29532e-18 0.5
0.0886222 0.0385725 -0.0025 0.5
0.0886222 0.0385725 0.0025 0.5
0.0723944 0.064217 -0.00176597 0.5
0.0723944 0.064217 0.00176597 0.5
0.0723944 0.064217 0.0025 0.5
0.0723944 0.064217 -0.0025 0.5
0.0886222 0.0391275 -0.0025 0.5
0.0886222 0.0391275 0.0025 0.5
0.0724573 0.06438 0.0025 0.5
0.0724573 0.06438 -0.0025 0.5
0.0886222 0.039405 -6.22645e-19 0.5
0.0883444 0.03996 0.0025 0.5
0.0883444 0.03996 -0.0025 0.5
0.0723866 0.0645352 -0.001801 0.5
0.0723866 0.0645352 0.001801 0.5
0.0723866 0.0645352 0.0025 0.5
0.0723866 0.0645352 -0.0025 0.5
0.0886222 0.0396825 -0.0025 0.5
0.0886222 0.0396825 0.0025 0.5
0.0723801 0.064935 -9.96821e-20 0.5
0.0886222 0.0402375 0.0025 0.5
0.0886222 0.0402375 -0.0025 0.5
0.0886222 0.040515 -2.0701e-21 0.5
0.0883444 0.04107 0.0025 0.5
0.0883444 0.04107 -0.0025 0.5
0.0724146 0.0653068 -0.00167499 0.5
0.0724146 0.0653068 0.00167499 0.5
0.0724146 0.0653068 0.0025 0.5
0.0724146 0.0653068 -0.0025 0.5
0.0886222 0.0407925 0.0025 0.5
0.0886222 0.0407925 -0.0025 0.5
0.0725179 0.06549 0.0025 0.5
0.0725179 0.06549 -0.0025 0.5
0.0886222 0.0413475 0.0025 0.5
0.0886222 0.0413475 -0.0025 0.5
0.0725017 0.0657601 -0.00128319 0.5
0.0725017 0.0657601 0.00128319 0.5
0.0886222 0.041625 0 0.5
0.0725017 0.0657601 0.0025 0.5
0.0725017 0.0657601 -0.0025 0.5
0.0883444 0.04218 0.0025 0.5
0.0883444 0.04218 -0.0025 0.5
0.0886222 0.0419025 0.0025 0.5