# f_l  POINT_DATA 1456
#  x  y  z  f_l
0.0482351 0.00166582 0 0.5
0.0482382 0.00156393 0.0025 0.5
0.0482382 0.00156393 -0.0025 0.5
0.0482357 0.00176853 0.0025 0.5
0.0482357 0.00176853 -0.0025 0.5
0.0482857 0.00111 -0.0025 0.5
0.0482857 0.00111 0.0025 0.5
0.0483679 0.000625789 0 0.5
0.0482697 0.00222 0.0025 0.5
0.0482697 0.00222 -0.0025 0.5
0.0483092 0.00280182 2.1828e-21 0.5
0.0483732 0.000588763 0.0025 0.5
0.0483732 0.000588763 -0.0025 0.5
0.0483052 0.00274088 0.0025 0.5
0.0483052 0.00274088 -0.0025 0.5
0.0483085 0.00280582 0.0025 0.5
0.0483085 0.00280582 -0.0025 0.5
0.04832 0.00333 0.0025 0.5
0.04832 0.00333 -0.0025 0.5
0.0484003 0.00388686 1.10651e-19 0.5
0.0483976 0.0038268 0.0025 0.5
0.0483976 0.0038268 -0.0025 0.5
0.0484032 0.0039488 0.0025 0.5
0.0484032 0.0039488 -0.0025 0.5
0.0483823 0.00444 0.0025 0.5
0.0483823 0.00444 -0.0025 0.5
0.0484983 0.0050005 6.99045e-20 0.5
0.0484905 0.00484409 0.0025 0.5
0.0484905 0.00484409 -0.0025 0.5
0.0484574 0.00555 0.0025 0.5
0.0484574 0.00555 -0.0025 0.5
0.048507 0.00516242 0.0025 0.5
0.048507 0.00516242 -0.0025 0.5
0.048895 0.000732535 -0.0025 0.5
0.048895 0.000732535 0.0025 0.5
0.0485958 0.00611436 8.72821e-21 0.5
0.0485823 0.0058624 0.0025 0.5
0.0485823 0.0058624 -0.0025 0.5
0.0485426 0.00666 0.0025 0.5
0.0485426 0.00666 -0.0025 0.5
0.0486104 0.00637569 0.0025 0.5
0.0486104 0.00637569 -0.0025 0.5
0.0486667 0.00688807 0.00147268 0.5
0.0486667 0.00688807 -0.00147268 0.5
0.0486667 0.00688807 0.0025 0.5
0.0486667 0.00688807 -0.0025 0.5
0.0486837 0.007215 -1.34805e-19 0.5
0.0491728 0.0002775 0.0025 0.5
0.0491728 0.0002775 -0.0025 0.5
0.0486318 0.00777 0.0025 0.5
0.0486318 0.00777 -0.0025 0.5
0.0487035 0.00757872 -0.00163836 0.5
0.0487035 0.00757872 0.00163836 0.5
0.0487035 0.00757872 0.0025 0.5
0.0487035 0.00757872 -0.0025 0.5
0.0487393 0.00792552 0.00179944 0.5
0.0487393 0.00792552 -0.00179944 0.5
0.0487393 0.00792552 0.0025 0.5
0.0487393 0.00792552 -0.0025 0.5
0.0494506 0.0002775 0 0.5
0.0487589 0.008325 -1.92221e-19 0.5
0.0487248 0.00888 0.0025 0.5
0.0487248 0.00888 -0.0025 0.5
0.0487838 0.00876892 -0.00199964 0.5
0.0487838 0.00876892 0.00199964 0.5
0.0487838 0.00876892 0.0025 0.5
0.0487838 0.00876892 -0.0025 0.5
0.0488014 0.0089735 0.00207881 0.5
0.0488014 0.0089735 -0.00207881 0.5
0.0488014 0.0089735 0.0025 0.5
0.0488014 0.0089735 -0.0025 0.5
0.0488257 0.009435 -3.78492e-20 0.5
0.0497284 0.0002775 0.0025 0.5
0.0497284 0.0002775 -0.0025 0.5
0.048895 0.00992808 0.0025 0.5
0.048895 0.00992808 -0.0025 0.5
0.0489001 0.00998488 -0.00247693 0.5
0.0489001 0.00998488 0.00247693 0.5
0.0489001 0.00998488 0.0025 0.5
0.0489001 0.00998488 -0.0025 0.5
0.0489032 0.00999815 -0.00246329 0.5
0.0489032 0.00999815 0.00246329 0.5
0.0489032 0.00999815 0.0025 0.5
0.0489032 0.00999815 -0.0025 0.5
0.0489061 0.00999 0.0025 0.5
0.0489061 0.00999 -0.0025 0.5
0.0500063 0.000555 -0.0025 0.5
0.0500063 0.000555 0.0025 0.5
0.0489904 0.010545 3.29589e-19 0.5
0.0490484 0.0109468 -0.00180972 0.5
0.0490484 0.0109468 0.00180972 0.5
0.0490484 0.0109468 -0.0025 0.5
0.0490484 0.0109468 0.0025 0.5
0.0502841 0.0002775 0.0025 0.5
0.0502841 0.0002775 -0.0025 0.5
0.049165 0.0111 0.0025 0.5
0.049165 0.0111 -0.0025 0.5
0.0491559 0.0113606 -0.00132596 0.5
0.0491559 0.0113606 0.00132596 0.5
0.0491559 0.0113606 0.0025 0.5
0.0491559 0.0113606 -0.0025 0.5
0.0505619 0.0002775 1.91847e-21 0.5
0.0492311 0.0117935 9.76955e-20 0.5
0.0492427 0.0118627 0.0025 0.5
0.0492427 0.0118627 -0.0025 0.5
0.0508397 0.0002775 0.0025 0.5
0.0508397 0.0002775 -0.0025 0.5
0.0493876 0.01221 0.0025 0.5
0.0493876 0.01221 -0.0025 0.5
0.0495292 0.0127445 3.45948e-19 0.5
0.0511175 0.000555 -0.0025 0.5
0.0511175 0.000555 0.0025 0.5
0.0495238 0.0126919 0.0025 0.5
0.0495238 0.0126919 -0.0025 0.5
0.0495507 0.0128649 0.0025 0.5
0.0495507 0.0128649 -0.0025 0.5
0.0495864 0.01332 0.0025 0.5
0.0495864 0.01332 -0.0025 0.5
0.0513953 0.0002775 0.0025 0.5
0.0513953 0.0002775 -0.0025 0.5
0.0497415 0.0135845 -0.00130859 0.5
0.0497415 0.0135845 0.00130859 0.5
0.0497415 0.0135845 0.0025 0.5
0.0497415 0.0135845 -0.0025 0.5
0.0497755 0.013875 -8.41172e-19 0.5
0.0516731 0.0002775 0 0.5
0.0498123 0.0142362 -0.00162722 0.5
0.0498123 0.0142362 0.00162722 0.5
0.0498123 0.0142362 0.0025 0.5
0.0498123 0.0142362 -0.0025 0.5
0.04976 0.01443 0.0025 0.5
0.04976 0.01443 -0.0025 0.5
0.0498728 0.0145633 0.0018994 0.5
0.0498728 0.0145633 -0.0018994 0.5
0.0519509 0.0002775 0.0025 0.5
0.0519509 0.0002775 -0.0025 0.5
0.0498728 0.0145633 0.0025 0.5
0.0498728 0.0145633 -0.0025 0.5
0.0499085 0.014985 2.03609e-20 0.5
0.0522288 0.000555 -0.0025 0.5
0.0522288 0.000555 0.0025 0.5
0.049982 0.01554 0.0025 0.5
0.049982 0.01554 -0.0025 0.5
0.0499908 0.0155245 -0.00243039 0.5
0.0499908 0.0155245 0.00243039 0.5
0.0499908 0.0155245 0.0025 0.5
0.0499908 0.0155245 -0.0025 0.5
0.0499941 0.0155521 0.00244541 0.5
0.0499941 0.0155521 -0.00244541 0.5
0.0499941 0.0155521 0.0025 0.5
0.0499941 0.0155521 -0.0025 0.5
0.0500063 0.0156151 -0.0025 0.5
0.0500063 0.0156151 0.0025 0.5
0.0525066 0.0002775 0.0025 0.5
0.0525066 0.0002775 -0.0025 0.5
0.0500833 0.016095 -1.75485e-20 0.5
0.0527844 0.0002775 0 0.5
0.0501669 0.0164895 -0.00177719 0.5
0.0501669 0.0164895 0.00177719 0.5
0.0501669 0.0164895 0.0025 0.5
0.0501669 0.0164895 -0.0025 0.5
0.0503224 0.01665 0.0025 0.5
0.0503224 0.01665 -0.0025 0.5
0.0530622 0.0002775 0.0025 0.5
0.0530622 0.0002775 -0.0025 0.5
0.0504125 0.0170558 -0.0025 0.5
0.0504125 0.0170558 0.0025 0.5
0.0504606 0.0172147 0 0.5
0.05334 0.000555 -0.0025 0.5
0.05334 0.000555 0.0025 0.5
0.0504773 0.0172895 0.0025 0.5
0.0504773 0.0172895 -0.0025 0.5
0.0536178 0.0002775 -0.0025 0.5
0.0536178 0.0002775 0.0025 0.5
0.0506371 0.01776 -0.0025 0.5
0.0506371 0.01776 0.0025 0.5
0.0538956 0.0002775 0 0.5
0.0508363 0.0181423 -9.23423e-21 0.5
0.0508213 0.0180559 0.0025 0.5
0.0508213 0.0180559 -0.0025 0.5
0.0541734 0.0002775 0.0025 0.5
0.0541734 0.0002775 -0.0025 0.5
0.0509144 0.0186671 -0.00158598 0.5
0.0509144 0.0186671 0.00158598 0.5
0.0509144 0.0186671 0.0025 0.5
0.0509144 0.0186671 -0.0025 0.5
0.0508758 0.01887 0.0025 0.5
0.0508758 0.01887 -0.0025 0.5
0.0509929 0.0189944 0.00193943 0.5
0.0509929 0.0189944 -0.00193943 0.5
0.0509929 0.0189944 0.0025 0.5
0.0509929 0.0189944 -0.0025 0.5
0.0544513 0.000555 -0.0025 0.5
0.0544513 0.000555 0.0025 0.5
0.051039 0.019425 2.83489e-20 0.5
0.0547291 0.0002775 0.0025 0.5
0.0547291 0.0002775 -0.0025 0.5
0.0511175 0.0198941 -0.0025 0.5
0.0511175 0.0198941 0.0025 0.5
0.0511275 0.0199701 -0.00245522 0.5
0.0511275 0.0199701 0.00245522 0.5
0.0511275 0.0199701 0.0025 0.5
0.0511275 0.0199701 -0.0025 0.5
0.0511329 0.0199954 -0.00243085 0.5
0.0511329 0.0199954 0.00243085 0.5
0.0511329 0.0199954 0.0025 0.5
0.0511329 0.0199954 -0.0025 0.5
0.0511393 0.01998 0.0025 0.5
0.0511393 0.01998 -0.0025 0.5
0.0550069 0.0002775 -5.58287e-21 0.5
0.0512286 0.020535 1.16044e-20 0.5
0.0552847 0.0002775 0.0025 0.5
0.0552847 0.0002775 -0.0025 0.5
0.0513116 0.0208961 0.00162655 0.5
0.0513116 0.0208961 -0.00162655 0.5
0.0513116 0.0208961 0.0025 0.5
0.0513116 0.0208961 -0.0025 0.5
0.0555625 0.000555 -0.0025 0.5
0.0555625 0.000555 0.0025 0.5
0.0515038 0.02109 0.0025 0.5
0.0515038 0.02109 -0.0025 0.5
0.0558403 0.0002775 0.0025 0.5
0.0558403 0.0002775 -0.0025 0.5
0.0517281 0.0216421 -1.59592e-19 0.5
0.051718 0.0216002 0.0025 0.5
0.051718 0.0216002 -0.0025 0.5
0.0561181 0.0002775 0 0.5
0.0517522 0.021724 0.0025 0.5
0.0517522 0.021724 -0.0025 0.5
0.0563959 0.0002775 0.0025 0.5
0.0563959 0.0002775 -0.0025 0.5
0.0518491 0.0222 -0.0025 0.5
0.0518491 0.0222 0.0025 0.5
0.052022 0.0224065 0.00156982 0.5
0.052022 0.0224065 -0.00156982 0.5
0.052022 0.0224065 0.0025 0.5
0.052022 0.0224065 -0.0025 0.5
0.0566738 0.000555 -0.0025 0.5
0.0566738 0.000555 0.0025 0.5
0.0520795 0.022755 -2.95411e-19 0.5
0.0569516 0.0002775 0.0025 0.5
0.0569516 0.0002775 -0.0025 0.5
0.0521281 0.0232094 0.00204703 0.5
0.0521281 0.0232094 -0.00204703 0.5
0.0521281 0.0232094 0.0025 0.5
0.0521281 0.0232094 -0.0025 0.5
0.052087 0.02331 0.0025 0.5
0.052087 0.02331 -0.0025 0.5
0.0521606 0.0233781 0.00219345 0.5
0.0521606 0.0233781 -0.00219345 0.5
0.0521606 0.0233781 0.0025 0.5
0.0521606 0.0233781 -0.0025 0.5
0.0572294 0.0002775 0 0.5
0.0522035 0.023865 2.25958e-21 0.5
0.0522287 0.0238226 -0.0025 0.5
0.0522287 0.0238226 0.0025 0.5
0.0575072 0.0002775 0.0025 0.5
0.0575072 0.0002775 -0.0025 0.5
0.0523007 0.0243481 -0.00217632 0.5
0.0523007 0.0243481 0.00217632 0.5
0.0523007 0.0243481 0.0025 0.5
0.0523007 0.0243481 -0.0025 0.5
0.057785 0.000555 -0.0025 0.5
0.057785 0.000555 0.0025 0.5
0.0523977 0.02442 0.0025 0.5
0.0523977 0.02442 -0.0025 0.5
0.0524058 0.0245968 -0.00170347 0.5
0.0524058 0.0245968 0.00170347 0.5
0.0524058 0.0245968 0.0025 0.5
0.0524058 0.0245968 -0.0025 0.5
0.0580628 0.0002775 0.0025 0.5
0.0580628 0.0002775 -0.0025 0.5
0.0525968 0.0252068 -1.74126e-19 0.5
0.0583406 0.0002775 0 0.5
0.05257 0.0251892 0.0025 0.5
0.05257 0.0251892 -0.0025 0.5
0.0586184 0.0002775 0.0025 0.5
0.0586184 0.0002775 -0.0025 0.5
0.0527913 0.02553 0.0025 0.5
0.0527913 0.02553 -0.0025 0.5
0.0588963 0.000555 -0.0025 0.5
0.0588963 0.000555 0.0025 0.5
0.0530308 0.0259333 -5.42168e-19 0.5
0.0530121 0.0258575 0.0025 0.5
0.0530121 0.0258575 -0.0025 0.5
0.0591741 0.0002775 0.0025 0.5
0.0591741 0.0002775 -0.0025 0.5
0.0531244 0.0264247 -0.0015301 0.5
0.0531244 0.0264247 0.0015301 0.5
0.0531244 0.0264247 0.0025 0.5
0.0531244 0.0264247 -0.0025 0.5
0.0594519 0.0002775 -7.45167e-21 0.5
0.0530984 0.02664 0.0025 0.5
0.0530984 0.02664 -0.0025 0.5
0.0532197 0.0267601 0.00195888 0.5
0.0532197 0.0267601 -0.00195888 0.5
0.0532197 0.0267601 0.0025 0.5
0.0532197 0.0267601 -0.0025 0.5
0.0597297 0.0002775 0.0025 0.5
0.0597297 0.0002775 -0.0025 0.5
0.0532738 0.027195 1.18465e-18 0.5
0.0600075 0.000555 -0.0025 0.5
0.0600075 0.000555 0.0025 0.5
0.0533097 0.0277197 -0.00236359 0.5
0.0533097 0.0277197 0.00236359 0.5
0.0532891 0.02775 -0.0025 0.5
0.0532891 0.02775 0.0025 0.5
0.0533097 0.0277197 -0.0025 0.5
0.0533097 0.0277197 0.0025 0.5
0.0533159 0.0277741 -0.00239136 0.5
0.0533159 0.0277741 0.00239136 0.5
0.0533159 0.0277741 -0.0025 0.5
0.0533159 0.0277741 0.0025 0.5
0.05334 0.0279346 -0.0025 0.5
0.05334 0.0279346 0.0025 0.5
0.0602853 0.0002775 0.0025 0.5
0.0602853 0.0002775 -0.0025 0.5
0.0533488 0.028305 -2.01237e-18 0.5
0.0605631 0.0002775 -9.93434e-23 0.5
0.0534457 0.0287544 -0.00202421 0.5
0.0534457 0.0287544 0.00202421 0.5
0.0534457 0.0287544 -0.0025 0.5
0.0534457 0.0287544 0.0025 0.5
0.0608409 0.0002775 0.0025 0.5
0.0608409 0.0002775 -0.0025 0.5
0.0535931 0.02886 0.0025 0.5
0.0535931 0.02886 -0.0025 0.5
0.0611187 0.000555 -0.0025 0.5
0.0611187 0.000555 0.0025 0.5
0.0537037 0.0292233 0.0025 0.5
0.0537037 0.0292233 -0.0025 0.5
0.0537747 0.0294173 -1.00771e-18 0.5
0.0538007 0.0295098 0.0025 0.5
0.0538007 0.0295098 -0.0025 0.5
0.0613966 0.0002775 -0.0025 0.5
0.0613966 0.0002775 0.0025 0.5
0.0616744 0.0002775 0 0.5
0.0539883 0.02997 0.0025 0.5
0.0539883 0.02997 -0.0025 0.5
0.0619522 0.0002775 -0.0025 0.5
0.0619522 0.0002775 0.0025 0.5
0.0541853 0.0302357 0.00130332 0.5
0.0541853 0.0302357 -0.00130332 0.5
0.0541853 0.0302357 0.0025 0.5
0.0541853 0.0302357 -0.0025 0.5
0.0542425 0.030525 9.00217e-19 0.5
0.06223 0.000555 -0.0025 0.5
0.06223 0.000555 0.0025 0.5
0.0542936 0.0309226 -0.00179081 0.5
0.0542936 0.0309226 0.00179081 0.5
0.0542936 0.0309226 0.0025 0.5
0.0542936 0.0309226 -0.0025 0.5
0.0625078 0.0002775 0.0025 0.5
0.0625078 0.0002775 -0.0025 0.5
0.0542516 0.03108 0.0025 0.5
0.0542516 0.03108 -0.0025 0.5
0.0543521 0.031179 0.002054 0.5
0.0543521 0.031179 -0.002054 0.5
0.0543521 0.031179 -0.0025 0.5
0.0543521 0.031179 0.0025 0.5
0.0627856 0.0002775 3.76374e-21 0.5
0.0543988 0.031635 2.2759e-20 0.5
0.0630634 0.0002775 -0.0025 0.5
0.0630634 0.0002775 0.0025 0.5
0.0544513 0.0321798 -0.0025 0.5
0.0544513 0.0321798 0.0025 0.5
0.0544522 0.0321891 -0.00249583 0.5
0.0544522 0.0321891 0.00249583 0.5
0.0544522 0.0321891 0.0025 0.5
0.0544522 0.0321891 -0.0025 0.5
0.0544524 0.0321911 -0.00249493 0.5
0.0544524 0.0321911 0.00249493 0.5
0.0544524 0.0321911 0.0025 0.5
0.0544524 0.0321911 -0.0025 0.5
0.0544532 0.03219 0.0025 0.5
0.0544532 0.03219 -0.0025 0.5
0.0633413 0.000555 -0.0025 0.5
0.0633413 0.000555 0.0025 0.5
0.0545059 0.032745 -3.33243e-20 0.5
0.0636191 0.0002775 0.0025 0.5
0.0636191 0.0002775 -0.0025 0.5
0.0638969 0.0002775 -5.95927e-22 0.5
0.0545883 0.0331631 -0.00188331 0.5
0.0545883 0.0331631 0.00188331 0.5
0.0545883 0.0331631 0.0025 0.5
0.0545883 0.0331631 -0.0025 0.5
0.0547499 0.0333 0.0025 0.5
0.0547499 0.0333 -0.0025 0.5
0.0641747 0.0002775 0.0025 0.5
0.0641747 0.0002775 -0.0025 0.5
0.0548519 0.0337002 0.0025 0.5
0.0548519 0.0337002 -0.0025 0.5
0.0644525 0.000555 -0.0025 0.5
0.0644525 0.000555 0.0025 0.5
0.0549019 0.0338698 -1.72258e-21 0.5
0.0549175 0.0339443 0.0025 0.5
0.0549175 0.0339443 -0.0025 0.5
0.0647303 0.0002775 0.0025 0.5
0.0647303 0.0002775 -0.0025 0.5
0.0550539 0.03441 0.0025 0.5
0.0550539 0.03441 -0.0025 0.5
0.0650081 0.0002775 0 0.5
0.0552249 0.0348267 4.9311e-22 0.5
0.0552146 0.0347575 0.0025 0.5
0.0552146 0.0347575 -0.0025 0.5
0.0652859 0.0002775 0.0025 0.5
0.0652859 0.0002775 -0.0025 0.5
0.0552913 0.0352491 -0.00127992 0.5
0.0552913 0.0352491 0.00127992 0.5
0.0655638 0.000555 -0.0025 0.5
0.0655638 0.000555 0.0025 0.5
0.0552913 0.0352491 -0.0025 0.5
0.0552913 0.0352491 0.0025 0.5
0.055273 0.03552 0.0025 0.5
0.055273 0.03552 -0.0025 0.5
0.0658416 0.0002775 0.0025 0.5
0.0658416 0.0002775 -0.0025 0.5
0.0554094 0.035673 0.00181093 0.5
0.0554094 0.035673 -0.00181093 0.5
0.0554094 0.035673 0.0025 0.5
0.0554094 0.035673 -0.0025 0.5
0.0661194 0.0002775 -1.81913e-21 0.5
0.0554585 0.036075 -2.94912e-20 0.5
0.0663972 0.0002775 0.0025 0.5
0.0663972 0.0002775 -0.0025 0.5
0.0554926 0.0365602 -0.00218546 0.5
0.0554926 0.0365602 0.00218546 0.5
0.0554926 0.0365602 0.0025 0.5
0.0554926 0.0365602 -0.0025 0.5
0.055453 0.03663 0.0025 0.5
0.055453 0.03663 -0.0025 0.5
0.0555088 0.0366836 -0.00225843 0.5
0.0555088 0.0366836 0.00225843 0.5
0.0555088 0.0366836 0.0025 0.5
0.0555088 0.0366836 -0.0025 0.5
0.066675 0.000555 -0.0025 0.5
0.066675 0.000555 0.0025 0.5
0.0555397 0.037185 0 0.5
0.0669528 0.0002775 0.0025 0.5
0.0669528 0.0002775 -0.0025 0.5
0.0555404 0.03774 0.0025 0.5
0.0555404 0.03774 -0.0025 0.5
0.0555507 0.0377283 0.00244711 0.5
0.0555507 0.0377283 -0.00244711 0.5
0.0555507 0.0377283 0.0025 0.5
0.0555507 0.0377283 -0.0025 0.5
0.0555516 0.0377508 0.00245115 0.5
0.0555516 0.0377508 -0.00245115 0.5
0.0555516 0.0377508 0.0025 0.5
0.0555516 0.0377508 -0.0025 0.5
0.0672306 0.0002775 9.10876e-20 0.5
0.0555625 0.0378968 -0.0025 0.5
0.0555625 0.0378968 0.0025 0.5
0.0555623 0.038295 -4.07573e-21 0.5
0.0675084 0.0002775 0.0025 0.5
0.0675084 0.0002775 -0.0025 0.5
0.0677863 0.000555 -0.0025 0.5
0.0677863 0.000555 0.0025 0.5
0.0556225 0.0387901 -0.00223007 0.5
0.0556225 0.0387901 0.00223007 0.5
0.0556225 0.0387901 0.0025 0.5
0.0556225 0.0387901 -0.0025 0.5
0.055697 0.03885 0.0025 0.5
0.055697 0.03885 -0.0025 0.5
0.0556682 0.0389556 -0.00202423 0.5
0.0556682 0.0389556 0.00202423 0.5
0.0556682 0.0389556 0.0025 0.5
0.0556682 0.0389556 -0.0025 0.5
0.0680641 0.0002775 0.0025 0.5
0.0680641 0.0002775 -0.0025 0.5
0.0557404 0.039405 6.06913e-21 0.5
0.0683419 0.0002775 1.14121e-19 0.5
0.0557887 0.0397341 -0.00148245 0.5
0.0557887 0.0397341 0.00148245 0.5
0.0557887 0.0397341 0.0025 0.5
0.0557887 0.0397341 -0.0025 0.5
0.0686197 0.0002775 0.0025 0.5
0.0686197 0.0002775 -0.0025 0.5
0.0559553 0.03996 0.0025 0.5
0.0559553 0.03996 -0.0025 0.5
0.0688975 0.000555 -0.0025 0.5
0.0688975 0.000555 0.0025 0.5
0.0560251 0.0404221 0.0025 0.5
0.0560251 0.0404221 -0.0025 0.5
0.0560479 0.040533 -8.89319e-20 0.5
0.0691753 0.0002775 0.0025 0.5
0.0691753 0.0002775 -0.0025 0.5
0.0560537 0.0405794 0.0025 0.5
0.0560537 0.0405794 -0.0025 0.5
0.0694531 0.0002775 9.36031e-20 0.5
0.0561644 0.04107 0.0025 0.5
0.0561644 0.04107 -0.0025 0.5
0.0697309 0.0002775 0.0025 0.5
0.0697309 0.0002775 -0.0025 0.5
0.0563078 0.0414356 0.0025 0.5
0.0563078 0.0414356 -0.0025 0.5
0.0563304 0.0416397 3.34546e-21 0.5
0.0700088 0.000555 -0.0025 0.5
0.0700088 0.000555 0.0025 0.5
0.0563519 0.0418585 0.0025 0.5
0.0563519 0.0418585 -0.0025 0.5
0.0702866 0.0002775 0.0025 0.5
0.0702866 0.0002775 -0.0025 0.5
0.0563104 0.04218 0.0025 0.5
0.0563104 0.04218 -0.0025 0.5
0.0705644 0.0002775 2.66209e-19 0.5
0.0564413 0.0424122 0.00145397 0.5
0.0564413 0.0424122 -0.00145397 0.5
0.0564413 0.0424122 0.0025 0.5
0.0564413 0.0424122 -0.0025 0.5
0.0564654 0.042735 0 0.5
0.0708422 0.0002775 0.0025 0.5
0.0708422 0.0002775 -0.0025 0.5
0.0564842 0.0431007 -0.0016473 0.5
0.0564842 0.0431007 0.0016473 0.5
0.0564842 0.0431007 0.0025 0.5
0.0564842 0.0431007 -0.0025 0.5
0.0564123 0.04329 0.0025 0.5
0.0564123 0.04329 -0.0025 0.5
0.07112 0.000555 -0.0025 0.5
0.07112 0.000555 0.0025 0.5
0.0565181 0.0434455 0.00179956 0.5
0.0565181 0.0434455 -0.00179956 0.5
0.0565181 0.0434455 0.0025 0.5
0.0565181 0.0434455 -0.0025 0.5
0.0713978 0.0002775 0.0025 0.5
0.0713978 0.0002775 -0.0025 0.5
0.0565368 0.043845 -5.81771e-20 0.5
0.0716756 0.0002775 9.36031e-20 0.5
0.05655 0.0442764 -0.00194313 0.5
0.05655 0.0442764 0.00194313 0.5
0.05655 0.0442764 0.0025 0.5
0.05655 0.0442764 -0.0025 0.5
0.0564813 0.0444 0.0025 0.5
0.0564813 0.0444 -0.0025 0.5
0.0719534 0.0002775 0.0025 0.5
0.0719534 0.0002775 -0.0025 0.5
0.0565639 0.0445098 0.00200559 0.5
0.0565639 0.0445098 -0.00200559 0.5
0.0565639 0.0445098 0.0025 0.5
0.0565639 0.0445098 -0.0025 0.5
0.0565767 0.044955 0 0.5
0.0722313 0.000555 -0.0025 0.5
0.0722313 0.000555 0.0025 0.5
0.0725091 0.0002775 0.0025 0.5
0.0725091 0.0002775 -0.0025 0.5
0.056585 0.0454213 -0.00210046 0.5
0.056585 0.0454213 0.00210046 0.5
0.056585 0.0454213 0.0025 0.5
0.056585 0.0454213 -0.0025 0.5
0.0565252 0.04551 0.0025 0.5
0.0565252 0.04551 -0.0025 0.5
0.0565909 0.0455928 0.00212721 0.5
0.0565909 0.0455928 -0.00212721 0.5
0.0565909 0.0455928 0.0025 0.5
0.0565909 0.0455928 -0.0025 0.5
0.0727869 0.0002775 1.145e-19 0.5
0.0565989 0.046065 -2.14967e-20 0.5
0.0730647 0.0002775 0.0025 0.5
0.0730647 0.0002775 -0.0025 0.5
0.0566039 0.0465502 -0.00218572 0.5
0.0566039 0.0465502 0.00218572 0.5
0.0566039 0.0465502 0.0025 0.5
0.0566039 0.0465502 -0.0025 0.5
0.0565519 0.04662 0.0025 0.5
0.0565519 0.04662 -0.0025 0.5
0.0733425 0.000555 -0.0025 0.5
0.0733425 0.000555 0.0025 0.5
0.0566067 0.046687 0.00219816 0.5
0.0566067 0.046687 -0.00219816 0.5
0.0566067 0.046687 0.0025 0.5
0.0566067 0.046687 -0.0025 0.5
0.0736203 0.0002775 0.0025 0.5
0.0736203 0.0002775 -0.0025 0.5
0.0566116 0.047175 7.39556e-20 0.5
0.0738981 0.0002775 1.12679e-19 0.5
0.0566145 0.0476708 -0.00223336 0.5
0.0566145 0.0476708 0.00223336 0.5
0.0566145 0.0476708 0.0025 0.5
0.0566145 0.0476708 -0.0025 0.5
0.0565678 0.04773 0.0025 0.5
0.0565678 0.04773 -0.0025 0.5
0.0566159 0.0477878 -0.00223956 0.5
0.0566159 0.0477878 0.00223956 0.5
0.0566159 0.0477878 0.0025 0.5
0.0566159 0.0477878 -0.0025 0.5
0.0741759 0.0002775 0.0025 0.5
0.0741759 0.0002775 -0.0025 0.5
0.0566188 0.048285 4.63259e-19 0.5
0.0744538 0.000555 -0.0025 0.5
0.0744538 0.000555 0.0025 0.5
0.0566199 0.0487862 0.00225755 0.5
0.0566199 0.0487862 -0.00225755 0.5
0.0747316 0.0002775 0.0025 0.5
0.0747316 0.0002775 -0.0025 0.5
0.0566199 0.0487862 0.0025 0.5
0.0566199 0.0487862 -0.0025 0.5
0.0565759 0.04884 0.0025 0.5
0.0565759 0.04884 -0.0025 0.5
0.0566203 0.0488934 0.00225964 0.5
0.0566203 0.0488934 -0.00225964 0.5
0.0566203 0.0488934 0.0025 0.5
0.0566203 0.0488934 -0.0025 0.5
0.0750094 0.0002775 1.14375e-19 0.5
0.0566214 0.049395 -2.3095e-18 0.5
0.0752872 0.0002775 0.0025 0.5
0.0752872 0.0002775 -0.0025 0.5
0.0566222 0.0498985 -0.00226784 0.5
0.0566222 0.0498985 0.00226784 0.5
0.0566222 0.0498985 0.0025 0.5
0.0566222 0.0498985 -0.0025 0.5
0.0565796 0.04995 0.0025 0.5
0.0565796 0.04995 -0.0025 0.5
0.0566225 0.0500012 -0.00226919 0.5
0.0566225 0.0500012 0.00226919 0.5
0.0566225 0.0500012 0.0025 0.5
0.0566225 0.0500012 -0.0025 0.5
0.075565 0.000555 -0.0025 0.5
0.075565 0.000555 0.0025 0.5
0.0566232 0.050505 1.7247e-18 0.5
0.0758428 0.0002775 0.0025 0.5
0.0758428 0.0002775 -0.0025 0.5
0.0761206 0.0002775 1.14623e-19 0.5
0.0566226 0.0510089 0.00227004 0.5
0.0566226 0.0510089 -0.00227004 0.5
0.0566226 0.0510089 0.0025 0.5
0.0566226 0.0510089 -0.0025 0.5
0.05658 0.05106 -0.0025 0.5
0.05658 0.05106 0.0025 0.5
0.0566224 0.0511113 0.00226904 0.5
0.0566224 0.0511113 -0.00226904 0.5
0.0566224 0.0511113 0.0025 0.5
0.0566224 0.0511113 -0.0025 0.5
0.0763984 0.0002775 0.0025 0.5
0.0763984 0.0002775 -0.0025 0.5
0.0566219 0.051615 -3.76144e-18 0.5
0.0766763 0.000555 -0.0025 0.5
0.0766763 0.000555 0.0025 0.5
0.0566206 0.0521169 0.00226103 0.5
0.0566206 0.0521169 -0.00226103 0.5
0.0769541 0.0002775 0.0025 0.5
0.0769541 0.0002775 -0.0025 0.5
0.0566206 0.0521169 0.0025 0.5
0.0566206 0.0521169 -0.0025 0.5
0.0565764 0.05217 0.0025 0.5
0.0565764 0.05217 -0.0025 0.5
0.0566201 0.0522236 0.00225866 0.5
0.0566201 0.0522236 -0.00225866 0.5
0.0566201 0.0522236 0.0025 0.5
0.0566201 0.0522236 -0.0025 0.5
0.0772319 0.0002775 1.08196e-19 0.5
0.0566189 0.052725 3.80364e-18 0.5
0.0775097 0.0002775 0.0025 0.5
0.0775097 0.0002775 -0.0025 0.5
0.0566158 0.0532221 -0.00223932 0.5
0.0566158 0.0532221 0.00223932 0.5
0.0566158 0.0532221 0.0025 0.5
0.0566158 0.0532221 -0.0025 0.5
0.0565676 0.05328 -0.0025 0.5
0.0565676 0.05328 0.0025 0.5
0.0566144 0.0533393 0.00223279 0.5
0.0566144 0.0533393 -0.00223279 0.5
0.0566144 0.0533393 0.0025 0.5
0.0566144 0.0533393 -0.0025 0.5
0.0777875 0.000555 -0.0025 0.5
0.0777875 0.000555 0.0025 0.5
0.0780653 0.0002775 0.0025 0.5
0.0780653 0.0002775 -0.0025 0.5
0.0566113 0.053835 4.00003e-18 0.5
0.0783431 0.0002775 8.26565e-20 0.5
0.0566064 0.0543227 -0.00219683 0.5
0.0566064 0.0543227 0.00219683 0.5
0.0566064 0.0543227 0.0025 0.5
0.0566064 0.0543227 -0.0025 0.5
0.0565514 0.05439 -0.0025 0.5
0.0565514 0.05439 0.0025 0.5
0.0566036 0.0544601 0.00218428 0.5
0.0566036 0.0544601 -0.00218428 0.5
0.0566036 0.0544601 -0.0025 0.5
0.0566036 0.0544601 0.0025 0.5
0.0786209 0.0002775 0.0025 0.5
0.0786209 0.0002775 -0.0025 0.5
0.0565986 0.054945 -3.94405e-18 0.5
0.0788988 0.000555 -0.0025 0.5
0.0788988 0.000555 0.0025 0.5
0.0791766 0.0002775 0.0025 0.5
0.0791766 0.0002775 -0.0025 0.5
0.0565913 0.0554176 -0.00212885 0.5
0.0565913 0.0554176 0.00212885 0.5
0.0565913 0.0554176 -0.0025 0.5
0.0565913 0.0554176 0.0025 0.5
0.0565262 0.0555 0.0025 0.5
0.0565262 0.0555 -0.0025 0.5
0.0565859 0.0555878 -0.00210467 0.5
0.0565859 0.0555878 0.00210467 0.5
0.0565859 0.0555878 -0.0025 0.5
0.0565859 0.0555878 0.0025 0.5
0.0794544 0.0002775 9.54222e-20 0.5
0.0565784 0.056055 -1.02408e-18 0.5
0.0797322 0.0002775 0.0025 0.5
0.0797322 0.0002775 -0.0025 0.5
0.0565684 0.0565048 -0.00202619 0.5
0.0565684 0.0565048 0.00202619 0.5
0.0565684 0.0565048 0.0025 0.5
0.0565684 0.0565048 -0.0025 0.5
0.05649 0.05661 0.0025 0.5
0.05649 0.05661 -0.0025 0.5
0.08001 0.000555 -0.0025 0.5
0.08001 0.000555 0.0025 0.5
0.0565585 0.0567251 -0.00198136 0.5
0.0565585 0.0567251 0.00198136 0.5
0.0565585 0.0567251 0.0025 0.5
0.0565585 0.0567251 -0.0025 0.5
0.0802878 0.0002775 0.0025 0.5
0.0802878 0.0002775 -0.0025 0.5
0.0565483 0.057165 1.00824e-18 0.5
0.0805656 0.0002775 1.15842e-19 0.5
0.0565361 0.0575825 0.00188071 0.5
0.0565361 0.0575825 -0.00188071 0.5
0.0565361 0.0575825 0.0025 0.5
0.0565361 0.0575825 -0.0025 0.5
0.0564426 0.05772 -0.0025 0.5
0.0564426 0.05772 0.0025 0.5
0.0808434 0.0002775 0.0025 0.5
0.0808434 0.0002775 -0.0025 0.5
0.0565185 0.0578751 0.00180153 0.5
0.0565185 0.0578751 -0.00180153 0.5
0.0565185 0.0578751 0.0025 0.5
0.0565185 0.0578751 -0.0025 0.5
0.0811213 0.000555 -0.0025 0.5
0.0811213 0.000555 0.0025 0.5
0.0565061 0.058275 -6.07516e-20 0.5
0.0813991 0.0002775 0.0025 0.5
0.0813991 0.0002775 -0.0025 0.5
0.0564926 0.058649 -0.0016849 0.5
0.0564926 0.058649 0.0016849 0.5
0.0564926 0.058649 0.0025 0.5
0.0564926 0.058649 -0.0025 0.5
0.0563854 0.05883 0.0025 0.5
0.0563854 0.05883 -0.0025 0.5
0.0816769 0.0002775 9.5745e-20 0.5
0.0564633 0.0590403 -0.00155288 0.5
0.0564633 0.0590403 0.00155288 0.5
0.0564633 0.0590403 0.0025 0.5
0.0564633 0.0590403 -0.0025 0.5
0.0564498 0.059385 -1.48297e-20 0.5
0.0819547 0.0002775 0.0025 0.5
0.0819547 0.0002775 -0.0025 0.5
0.0564363 0.0597028 -0.00143172 0.5
0.0564363 0.0597028 0.00143172 0.5
0.0564363 0.0597028 -0.0025 0.5
0.0564363 0.0597028 0.0025 0.5
0.0822325 0.000555 -0.0025 0.5
0.0822325 0.000555 0.0025 0.5
0.0563209 0.05994 0.0025 0.5
0.0563209 0.05994 -0.0025 0.5
0.0563902 0.0602233 0.0025 0.5
0.0563902 0.0602233 -0.0025 0.5
0.0825103 0.0002775 0.0025 0.5
0.0825103 0.0002775 -0.0025 0.5
0.0563779 0.060487 -9.50387e-20 0.5
0.0827881 0.0002775 8.32524e-20 0.5
0.0563661 0.0607427 0.0025 0.5
0.0563661 0.0607427 -0.0025 0.5
0.0562538 0.06105 0.0025 0.5
0.0562538 0.06105 -0.0025 0.5
0.0830659 0.0002775 0.0025 0.5
0.0830659 0.0002775 -0.0025 0.5
0.0563 0.0614233 -0.0025 0.5
0.0563 0.0614233 0.0025 0.5
0.0833437 0.000555 -0.0025 0.5
0.0833437 0.000555 0.0025 0.5
0.0562913 0.0615994 5.77936e-20 0.5
0.0562831 0.0617698 0.0025 0.5
0.0562831 0.0617698 -0.0025 0.5
0.0836216 0.0002775 0.0025 0.5
0.0836216 0.0002775 -0.0025 0.5
0.05619 0.06216 0.0025 0.5
0.05619 0.06216 -0.0025 0.5
0.0838994 0.0002775 3.228e-22 0.5
0.0561994 0.0626338 0.0025 0.5
0.0561994 0.0626338 -0.0025 0.5
0.0561957 0.0627126 -3.18753e-20 0.5
0.0841772 0.0002775 0.0025 0.5
0.0841772 0.0002775 -0.0025 0.5
0.0561923 0.0627891 0.0025 0.5
0.0561923 0.0627891 -0.0025 0.5
0.084455 0.000555 -0.0025 0.5
0.084455 0.000555 0.0025 0.5
0.056135 0.06327 0.0025 0.5
0.056135 0.06327 -0.0025 0.5
0.0847328 0.0002775 0.0025 0.5
0.0847328 0.0002775 -0.0025 0.5
0.056104 0.0638118 4.53389e-23 0.5
0.0561035 0.0638104 0.0025 0.5
0.0561035 0.0638104 -0.0025 0.5
0.0850106 0.0002775 0 0.5
0.0561024 0.0638407 -0.0025 0.5
0.0561024 0.0638407 0.0025 0.5
0.0852884 0.0002775 0.0025 0.5
0.0852884 0.0002775 -0.0025 0.5
0.0560918 0.06438 0.0025 0.5
0.0560918 0.06438 -0.0025 0.5
0.0855663 0.000555 -0.0025 0.5
0.0855663 0.000555 0.0025 0.5
0.0560374 0.0648544 0.0025 0.5
0.0560374 0.0648544 -0.0025 0.5
0.0560372 0.0649343 4.67465e-20 0.5
0.0560394 0.0650137 0.0025 0.5
0.0560394 0.0650137 -0.0025 0.5
0.0858441 0.0002775 0.0025 0.5
0.0858441 0.0002775 -0.0025 0.5
0.0861219 0.0002775 0 0.5
0.0561072 0.06549 0.0025 0.5
0.0561072 0.06549 -0.0025 0.5
0.0863997 0.0002775 0.0025 0.5
0.0863997 0.0002775 -0.0025 0.5
0.0561536 0.065954 2.81781e-21 0.5
0.0561602 0.066003 0.0025 0.5
0.0561602 0.066003 -0.0025 0.5
0.0866775 0.000555 -0.0025 0.5
0.0866775 0.000555 0.0025 0.5
0.0566738 0.0658648 -0.0025 0.5
0.0566738 0.0658648 0.0025 0.5
0.0869553 0.0002775 0.0025 0.5
0.0869553 0.0002775 -0.0025 0.5
0.0872331 0.0002775 0 0.5
0.0569516 0.0663225 0.0025 0.5
0.0569516 0.0663225 -0.0025 0.5
0.0875109 0.0002775 0.0025 0.5
0.0875109 0.0002775 -0.0025 0.5
0.0572294 0.0663225 0 0.5
0.057785 0.066045 -0.0025 0.5
0.057785 0.066045 0.0025 0.5
0.0575072 0.0663225 0.0025 0.5
0.0575072 0.0663225 -0.0025 0.5
0.0877888 0.000555 -0.0025 0.5
0.0877888 0.000555 0.0025 0.5
0.0880666 0.0002775 -0.00125 0.5
0.0880666 0.0002775 0.00125 0.5
0.0880666 0.0002775 0.0025 0.5
0.0880666 0.0002775 -0.0025 0.5
0.0580628 0.0663225 -0.0025 0.5
0.0580628 0.0663225 0.0025 0.5
0.0583406 0.0663225 0 0.5
0.0883444 0.0002775 0 0.5
0.0883444 0.00111 0.0025 0.5
0.0883444 0.00111 -0.0025 0.5
0.0883444 0.00222 0.0025 0.5
0.0883444 0.00222 -0.0025 0.5
0.0883444 0.00333 0.0025 0.5
0.0883444 0.00333 -0.0025 0.5
0.0883444 0.00444 0.0025 0.5
0.0883444 0.00444 -0.0025 0.5
0.0588963 0.066045 -0.0025 0.5
0.0588963 0.066045 0.0025 0.5
0.0586184 0.0663225 -0.0025 0.5
0.0586184 0.0663225 0.0025 0.5
0.0883444 0.00555 0.0025 0.5
0.0883444 0.00555 -0.0025 0.5
0.0886222 0.000555 0 0.5
0.0883444 0.00666 0.0025 0.5
0.0883444 0.00666 -0.0025 0.5
0.0886222 0.0002775 -0.00125 0.5
0.0886222 0.0002775 0.00125 0.5
0.0886222 0.0008325 0.00125 0.5
0.0886222 0.0008325 -0.00125 0.5
0.0886222 0.001665 0 0.5
0.0886222 0.0002775 0.0025 0.5
0.0886222 0.0002775 -0.0025 0.5
0.0886222 0.0008325 0.0025 0.5
0.0886222 0.0008325 -0.0025 0.5
0.0886222 0.002775 0 0.5
0.0886222 0.0013875 0.0025 0.5
0.0886222 0.0013875 -0.0025 0.5
0.0886222 0.0019425 0.0025 0.5
0.0886222 0.0019425 -0.0025 0.5
0.0886222 0.0024975 0.0025 0.5
0.0886222 0.0024975 -0.0025 0.5
0.0886222 0.003885 0 0.5
0.0886222 0.0030525 0.0025 0.5
0.0886222 0.0030525 -0.0025 0.5
0.0883444 0.00777 0.0025 0.5
0.0883444 0.00777 -0.0025 0.5
0.0886222 0.0036075 0.0025 0.5
0.0886222 0.0036075 -0.0025 0.5
0.0886222 0.0041625 0.0025 0.5
0.0886222 0.0041625 -0.0025 0.5
0.0886222 0.004995 -1.81603e-19 0.5
0.0886222 0.0047175 0.0025 0.5
0.0886222 0.0047175 -0.0025 0.5
0.0886222 0.0052725 0.0025 0.5
0.0886222 0.0052725 -0.0025 0.5
0.0883444 0.00888 0.0025 0.5
0.0883444 0.00888 -0.0025 0.5
0.0886222 0.006105 -4.31797e-21 0.5
0.0886222 0.0058275 0.0025 0.5
0.0886222 0.0058275 -0.0025 0.5
0.0886222 0.0063825 0.0025 0.5
0.0886222 0.0063825 -0.0025 0.5
0.0886222 0.007215 3.76366e-21 0.5
0.0591741 0.0663225 0.0025 0.5
0.0591741 0.0663225 -0.0025 0.5
0.0886222 0.0069375 -0.0025 0.5
0.0886222 0.0069375 0.0025 0.5
0.0883444 0.00999 0.0025 0.5
0.0883444 0.00999 -0.0025 0.5
0.0886222 0.0074925 -0.0025 0.5
0.0886222 0.0074925 0.0025 0.5
0.0886222 0.008325 1.10296e-21 0.5
0.0886222 0.0080475 -0.0025 0.5
0.0886222 0.0080475 0.0025 0.5
0.0594519 0.0663225 0 0.5
0.0886222 0.0086025 -0.0025 0.5
0.0886222 0.0086025 0.0025 0.5
0.0883444 0.0111 0.0025 0.5
0.0883444 0.0111 -0.0025 0.5
0.0886222 0.009435 1.92878e-21 0.5
0.0886222 0.0091575 0.0025 0.5
0.0886222 0.0091575 -0.0025 0.5
0.0886222 0.0097125 0.0025 0.5
0.0886222 0.0097125 -0.0025 0.5
0.0883444 0.01221 0.0025 0.5
0.0883444 0.01221 -0.0025 0.5
0.0886222 0.010545 3.88923e-21 0.5
0.0886222 0.0102675 0.0025 0.5
0.0886222 0.0102675 -0.0025 0.5
0.0600075 0.066045 -0.0025 0.5
0.0600075 0.066045 0.0025 0.5
0.0597297 0.0663225 0.0025 0.5
0.0597297 0.0663225 -0.0025 0.5
0.0886222 0.0108225 0.0025 0.5
0.0886222 0.0108225 -0.0025 0.5
0.0883444 0.01332 0.0025 0.5
0.0883444 0.01332 -0.0025 0.5
0.0886222 0.0113775 0.0025 0.5
0.0886222 0.0113775 -0.0025 0.5
0.0886222 0.011655 2.78619e-21 0.5
0.0886222 0.0119325 0.0025 0.5