# f_l  POINT_DATA 1590
#  x  y  z  f_l
0.0377402 0.000555 1.35447e-19 0.5
0.0377297 0.001665 8.21038e-20 0.5
0.037695 0.00111 0.0025 0.5
0.037695 0.00111 -0.0025 0.5
0.0377358 0.00106337 -0.00228995 0.5
0.0377358 0.00106337 0.00228995 0.5
0.0377342 0.00115828 -0.00228252 0.5
0.0377342 0.00115828 0.00228252 0.5
0.0377358 0.00106337 0.0025 0.5
0.0377358 0.00106337 -0.0025 0.5
0.0377342 0.00115828 -0.0025 0.5
0.0377342 0.00115828 0.0025 0.5
0.0377375 0.002775 -1.19745e-19 0.5
0.0376927 0.00222 0.0025 0.5
0.0376927 0.00222 -0.0025 0.5
0.037733 0.00217056 0.00227731 0.5
0.037733 0.00217056 -0.00227731 0.5
0.0377343 0.00226818 0.00228298 0.5
0.0377343 0.00226818 -0.00228298 0.5
0.037733 0.00217056 0.0025 0.5
0.037733 0.00217056 -0.0025 0.5
0.0377825 0.00102897 -0.0025 0.5
0.0377825 0.00102897 0.0025 0.5
0.0377343 0.00226818 0.0025 0.5
0.0377343 0.00226818 -0.0025 0.5
0.0377111 0.00333 0.0025 0.5
0.0377111 0.00333 -0.0025 0.5
0.037751 0.003885 9.65513e-20 0.5
0.0377435 0.00329101 -0.00232437 0.5
0.0377435 0.00329101 0.00232437 0.5
0.0377452 0.00336725 0.00233219 0.5
0.0377452 0.00336725 -0.00233219 0.5
0.0377435 0.00329101 0.0025 0.5
0.0377435 0.00329101 -0.0025 0.5
0.0377452 0.00336725 0.0025 0.5
0.0377452 0.00336725 -0.0025 0.5
0.037736 0.00444 0.0025 0.5
0.037736 0.00444 -0.0025 0.5
0.0377576 0.00441513 -0.00238798 0.5
0.0377576 0.00441513 0.00238798 0.5
0.0377652 0.004995 -3.74572e-20 0.5
0.0377588 0.00446368 0.00239333 0.5
0.0377588 0.00446368 -0.00239333 0.5
0.0377576 0.00441513 0.0025 0.5
0.0377576 0.00441513 -0.0025 0.5
0.0377588 0.00446368 0.0025 0.5
0.0377588 0.00446368 -0.0025 0.5
0.0380603 0.0002775 0.0025 0.5
0.0380603 0.0002775 -0.0025 0.5
0.0377777 0.00555 0.0025 0.5
0.0377777 0.00555 -0.0025 0.5
0.03778 0.00554748 -0.00248865 0.5
0.03778 0.00554748 0.00248865 0.5
0.03778 0.00554748 0.0025 0.5
0.03778 0.00554748 -0.0025 0.5
0.0377801 0.00555243 0.00248907 0.5
0.0377801 0.00555243 -0.00248907 0.5
0.0377801 0.00555243 0.0025 0.5
0.0377801 0.00555243 -0.0025 0.5
0.0377825 0.00560509 -0.0025 0.5
0.0377825 0.00560509 0.0025 0.5
0.0377951 0.006105 2.71158e-19 0.5
0.0383381 0.0002775 0 0.5
0.0378274 0.00661512 -0.00229785 0.5
0.0378274 0.00661512 0.00229785 0.5
0.0378274 0.00661512 0.0025 0.5
0.0378274 0.00661512 -0.0025 0.5
0.0378402 0.00671761 -0.00224051 0.5
0.0378402 0.00671761 0.00224051 0.5
0.0378402 0.00671761 -0.0025 0.5
0.0378402 0.00671761 0.0025 0.5
0.0378744 0.00666 0.0025 0.5
0.0378744 0.00666 -0.0025 0.5
0.0378755 0.007215 2.33942e-19 0.5
0.0386159 0.0002775 0.0025 0.5
0.0386159 0.0002775 -0.0025 0.5
0.0379056 0.00764703 -0.00194608 0.5
0.0379056 0.00764703 0.00194608 0.5
0.0379056 0.00764703 -0.0025 0.5
0.0379056 0.00764703 0.0025 0.5
0.0379473 0.00793457 -0.00175871 0.5
0.0379473 0.00793457 0.00175871 0.5
0.0379473 0.00793457 0.0025 0.5
0.0379473 0.00793457 -0.0025 0.5
0.0380069 0.00777 0.0025 0.5
0.0380069 0.00777 -0.0025 0.5
0.0379785 0.008325 5.45542e-20 0.5
0.0388938 0.000555 -0.0025 0.5
0.0388938 0.000555 0.0025 0.5
0.0380064 0.00865631 -0.00149239 0.5
0.0380064 0.00865631 0.00149239 0.5
0.0380064 0.00865631 0.0025 0.5
0.0380064 0.00865631 -0.0025 0.5
0.0381414 0.00888 0.0025 0.5
0.0381414 0.00888 -0.0025 0.5
0.0391716 0.0002775 0.0025 0.5
0.0391716 0.0002775 -0.0025 0.5
0.0381296 0.00942049 -1.33162e-21 0.5
0.0381073 0.00920442 0.0025 0.5
0.0381073 0.00920442 -0.0025 0.5
0.0381509 0.00962206 0.0025 0.5
0.0381509 0.00962206 -0.0025 0.5
0.0394494 0.0002775 3.228e-22 0.5
0.0382843 0.00999 0.0025 0.5
0.0382843 0.00999 -0.0025 0.5
0.0383738 0.0105332 -5.31911e-20 0.5
0.0397272 0.0002775 0.0025 0.5
0.0397272 0.0002775 -0.0025 0.5
0.0383722 0.010511 0.0025 0.5
0.0383722 0.010511 -0.0025 0.5
0.0383824 0.0105892 0.0025 0.5
0.0383824 0.0105892 -0.0025 0.5
0.038434 0.0111 0.0025 0.5
0.038434 0.0111 -0.0025 0.5
0.040005 0.000555 -0.0025 0.5
0.040005 0.000555 0.0025 0.5
0.0385841 0.0114967 1.37732e-20 0.5
0.0385758 0.0114175 0.0025 0.5
0.0385758 0.0114175 -0.0025 0.5
0.0402828 0.0002775 0.0025 0.5
0.0402828 0.0002775 -0.0025 0.5
0.0386303 0.0119469 -0.00131469 0.5
0.0386303 0.0119469 0.00131469 0.5
0.0386303 0.0119469 0.0025 0.5
0.0386303 0.0119469 -0.0025 0.5
0.0385838 0.01221 -0.0025 0.5
0.0385838 0.01221 0.0025 0.5
0.0405606 0.0002775 0 0.5
0.0387123 0.0123913 0.00168346 0.5
0.0387123 0.0123913 -0.00168346 0.5
0.0387123 0.0123913 0.0025 0.5
0.0387123 0.0123913 -0.0025 0.5
0.0387438 0.012765 -4.13484e-19 0.5
0.0408384 0.0002775 0.0025 0.5
0.0408384 0.0002775 -0.0025 0.5
0.0387765 0.0132028 0.00197229 0.5
0.0387765 0.0132028 -0.00197229 0.5
0.0387228 0.01332 0.0025 0.5
0.0387228 0.01332 -0.0025 0.5
0.0387765 0.0132028 0.0025 0.5
0.0387765 0.0132028 -0.0025 0.5
0.038805 0.0134086 0.00210076 0.5
0.038805 0.0134086 -0.00210076 0.5
0.038805 0.0134086 0.0025 0.5
0.038805 0.0134086 -0.0025 0.5
0.0411163 0.000555 -0.0025 0.5
0.0411163 0.000555 0.0025 0.5
0.0388353 0.013875 6.11494e-19 0.5
0.0413941 0.0002775 0.0025 0.5
0.0413941 0.0002775 -0.0025 0.5
0.0388938 0.0143191 0.0025 0.5
0.0388938 0.0143191 -0.0025 0.5
0.0389031 0.0144207 -0.00245802 0.5
0.0389031 0.0144207 0.00245802 0.5
0.0389031 0.0144207 0.0025 0.5
0.0389031 0.0144207 -0.0025 0.5
0.0389069 0.0144432 -0.00244062 0.5
0.0389069 0.0144432 0.00244062 0.5
0.0389069 0.0144432 0.0025 0.5
0.0389069 0.0144432 -0.0025 0.5
0.0389139 0.01443 0.0025 0.5
0.0389139 0.01443 -0.0025 0.5
0.0416719 0.0002775 0 0.5
0.0389802 0.014985 -2.09754e-20 0.5
0.0390572 0.0153767 -0.00176459 0.5
0.0390572 0.0153767 0.00176459 0.5
0.0419497 0.0002775 0.0025 0.5
0.0419497 0.0002775 -0.0025 0.5
0.0390572 0.0153767 0.0025 0.5
0.0390572 0.0153767 -0.0025 0.5
0.0392221 0.01554 0.0025 0.5
0.0392221 0.01554 -0.0025 0.5
0.0422275 0.000555 -0.0025 0.5
0.0422275 0.000555 0.0025 0.5
0.0393203 0.0159661 -0.0025 0.5
0.0393203 0.0159661 0.0025 0.5
0.0393616 0.0161026 3.55689e-20 0.5
0.0425053 0.0002775 0.0025 0.5
0.0425053 0.0002775 -0.0025 0.5
0.0393763 0.016168 -0.0025 0.5
0.0393763 0.016168 0.0025 0.5
0.0427831 0.0002775 -6.27343e-20 0.5
0.0395429 0.01665 -0.0025 0.5
0.0395429 0.01665 0.0025 0.5
0.0430609 0.0002775 0.0025 0.5
0.0430609 0.0002775 -0.0025 0.5
0.0397303 0.0169244 0.00126387 0.5
0.0397303 0.0169244 -0.00126387 0.5
0.0397303 0.0169244 0.0025 0.5
0.0397303 0.0169244 -0.0025 0.5
0.0397809 0.017205 2.00389e-20 0.5
0.0433388 0.000555 -0.0025 0.5
0.0433388 0.000555 0.0025 0.5
0.0398331 0.0175882 -0.00172635 0.5
0.0398331 0.0175882 0.00172635 0.5
0.0398331 0.0175882 -0.0025 0.5
0.0398331 0.0175882 0.0025 0.5
0.0397933 0.01776 0.0025 0.5
0.0397933 0.01776 -0.0025 0.5
0.0436166 0.0002775 0.0025 0.5
0.0436166 0.0002775 -0.0025 0.5
0.0398995 0.0178654 0.00202518 0.5
0.0398995 0.0178654 -0.00202518 0.5
0.0398995 0.0178654 0.0025 0.5
0.0398995 0.0178654 -0.0025 0.5
0.0438944 0.0002775 -5.5916e-20 0.5
0.0399476 0.018315 -5.72426e-20 0.5
0.040005 0.018468 -0.0025 0.5
0.040005 0.018468 0.0025 0.5
0.0441722 0.0002775 0.0025 0.5
0.0441722 0.0002775 -0.0025 0.5
0.0400592 0.0188158 -0.00225594 0.5
0.0400592 0.0188158 0.00225594 0.5
0.0400592 0.0188158 0.0025 0.5
0.0400592 0.0188158 -0.0025 0.5
0.0401316 0.01887 0.0025 0.5
0.0401316 0.01887 -0.0025 0.5
0.0401315 0.0189963 -0.00193098 0.5
0.0401315 0.0189963 0.00193098 0.5
0.0401315 0.0189963 0.0025 0.5
0.0401315 0.0189963 -0.0025 0.5
0.04445 0.000555 0.0025 0.5
0.04445 0.000555 -0.0025 0.5
0.0447278 0.0002775 0.0025 0.5
0.0447278 0.0002775 -0.0025 0.5
0.0403549 0.0196678 4.07577e-22 0.5
0.0403274 0.019658 0.0025 0.5
0.0403274 0.019658 -0.0025 0.5
0.0450056 0.0002775 0 0.5
0.0405707 0.01998 0.0025 0.5
0.0405707 0.01998 -0.0025 0.5
0.0452834 0.0002775 0.0025 0.5
0.0452834 0.0002775 -0.0025 0.5
0.0455612 0.000555 -0.0025 0.5
0.0455612 0.000555 0.0025 0.5
0.0408371 0.0203664 -8.61991e-21 0.5
0.0408138 0.0202821 0.0025 0.5
0.0408138 0.0202821 -0.0025 0.5
0.0458391 0.0002775 0.0025 0.5
0.0458391 0.0002775 -0.0025 0.5
0.0409522 0.0209262 -0.00176201 0.5
0.0409522 0.0209262 0.00176201 0.5
0.0409522 0.0209262 0.0025 0.5
0.0409522 0.0209262 -0.0025 0.5
0.0409256 0.02109 0.0025 0.5
0.0409256 0.02109 -0.0025 0.5
0.0461169 0.0002775 0 0.5
0.0410276 0.0211785 0.00210119 0.5
0.0410276 0.0211785 -0.00210119 0.5
0.0410276 0.0211785 0.0025 0.5
0.0410276 0.0211785 -0.0025 0.5
0.0410882 0.021645 7.76209e-20 0.5
0.0463947 0.0002775 0.0025 0.5
0.0463947 0.0002775 -0.0025 0.5
0.0411163 0.0215832 -0.0025 0.5
0.0411163 0.0215832 0.0025 0.5
0.0466725 0.000555 -0.0025 0.5
0.0466725 0.000555 0.0025 0.5
0.0412144 0.022102 -0.00205838 0.5
0.0412144 0.022102 0.00205838 0.5
0.0412144 0.022102 0.0025 0.5
0.0412144 0.022102 -0.0025 0.5
0.0413605 0.0222 0.0025 0.5
0.0413605 0.0222 -0.0025 0.5
0.0469503 0.0002775 0.0025 0.5
0.0469503 0.0002775 -0.0025 0.5
0.0472281 0.0002775 -1.94461e-21 0.5
0.0415741 0.0226573 -0.0025 0.5
0.0415741 0.0226573 0.0025 0.5
0.0416186 0.0227476 1.58243e-19 0.5
0.0416363 0.0227906 -0.0025 0.5
0.0416363 0.0227906 0.0025 0.5
0.0475059 0.0002775 0.0025 0.5
0.0475059 0.0002775 -0.0025 0.5
0.0477837 0.000555 -0.0025 0.5
0.0477837 0.000555 0.0025 0.5
0.0418601 0.02331 -0.0025 0.5
0.0418601 0.02331 0.0025 0.5
0.0480616 0.0002775 0.0025 0.5
0.0480616 0.0002775 -0.0025 0.5
0.0420532 0.0234841 0.00171564 0.5
0.0420532 0.0234841 -0.00171564 0.5
0.0420532 0.0234841 -0.0025 0.5
0.0420532 0.0234841 0.0025 0.5
0.0483394 0.0002775 0 0.5
0.0421383 0.023865 2.36999e-19 0.5
0.0486172 0.0002775 0.0025 0.5
0.0486172 0.0002775 -0.0025 0.5
0.0422275 0.0242932 -0.0025 0.5
0.0422275 0.0242932 0.0025 0.5
0.0422502 0.0243973 0.00239771 0.5
0.0422502 0.0243973 -0.00239771 0.5
0.0422502 0.0243973 0.0025 0.5
0.0422502 0.0243973 -0.0025 0.5
0.0422784 0.02442 0.0025 0.5
0.0422784 0.02442 -0.0025 0.5
0.0422673 0.0244598 0.00232083 0.5
0.0422673 0.0244598 -0.00232083 0.5
0.0422673 0.0244598 0.0025 0.5
0.0422673 0.0244598 -0.0025 0.5
0.048895 0.000555 -0.0025 0.5
0.048895 0.000555 0.0025 0.5
0.0423876 0.024975 6.79281e-19 0.5
0.0491728 0.0002775 0.0025 0.5
0.0491728 0.0002775 -0.0025 0.5
0.0494506 0.0002775 0 0.5
0.0424899 0.0252679 -0.00131944 0.5
0.0424899 0.0252679 0.00131944 0.5
0.0424899 0.0252679 0.0025 0.5
0.0424899 0.0252679 -0.0025 0.5
0.0497284 0.0002775 0.0025 0.5
0.0497284 0.0002775 -0.0025 0.5
0.0427769 0.02553 -0.0025 0.5
0.0427769 0.02553 0.0025 0.5
0.0500063 0.000555 -0.0025 0.5
0.0500063 0.000555 0.0025 0.5
0.0429757 0.0258132 -6.92719e-19 0.5
0.0430676 0.0258009 0.00127982 0.5
0.0430676 0.0258009 -0.00127982 0.5
0.0430676 0.0258009 0.0025 0.5
0.0430676 0.0258009 -0.0025 0.5
0.0502841 0.0002775 0.0025 0.5
0.0502841 0.0002775 -0.0025 0.5
0.0505619 0.0002775 1.91847e-21 0.5
0.0432572 0.0265585 -0.002133 0.5
0.0432572 0.0265585 0.002133 0.5
0.0432572 0.0265585 0.0025 0.5
0.0432572 0.0265585 -0.0025 0.5
0.0432346 0.02664 0.0025 0.5
0.0432346 0.02664 -0.0025 0.5
0.0508397 0.0002775 0.0025 0.5
0.0508397 0.0002775 -0.0025 0.5
0.0432923 0.0266864 0.00229089 0.5
0.0432923 0.0266864 -0.00229089 0.5
0.0432923 0.0266864 0.0025 0.5
0.0432923 0.0266864 -0.0025 0.5
0.0433388 0.0268699 -0.0025 0.5
0.0433388 0.0268699 0.0025 0.5
0.0511175 0.000555 -0.0025 0.5
0.0511175 0.000555 0.0025 0.5
0.0433695 0.027195 1.37281e-19 0.5
0.0513953 0.0002775 0.0025 0.5
0.0513953 0.0002775 -0.0025 0.5
0.0434947 0.0275942 -0.0017982 0.5
0.0434947 0.0275942 0.0017982 0.5
0.0434947 0.0275942 0.0025 0.5
0.0434947 0.0275942 -0.0025 0.5
0.0516731 0.0002775 0 0.5
0.0437269 0.02775 0.0025 0.5
0.0437269 0.02775 -0.0025 0.5
0.0519509 0.0002775 0.0025 0.5
0.0519509 0.0002775 -0.0025 0.5
0.0440511 0.0281448 -9.45696e-19 0.5
0.0522288 0.000555 -0.0025 0.5
0.0522288 0.000555 0.0025 0.5
0.0440666 0.028133 0.0025 0.5
0.0440666 0.028133 -0.0025 0.5
0.0525066 0.0002775 0.0025 0.5
0.0525066 0.0002775 -0.0025 0.5
0.044225 0.0286353 0.00148768 0.5
0.044225 0.0286353 -0.00148768 0.5
0.044225 0.0286353 0.0025 0.5
0.044225 0.0286353 -0.0025 0.5
0.0527844 0.0002775 0 0.5
0.044229 0.02886 0.0025 0.5
0.044229 0.02886 -0.0025 0.5
0.0443506 0.0289593 0.00205267 0.5
0.0443506 0.0289593 -0.00205267 0.5
0.0443506 0.0289593 0.0025 0.5
0.0443506 0.0289593 -0.0025 0.5
0.0530622 0.0002775 0.0025 0.5
0.0530622 0.0002775 -0.0025 0.5
0.0444246 0.029415 7.75989e-19 0.5
0.04445 0.029451 0.0025 0.5
0.04445 0.029451 -0.0025 0.5
0.05334 0.000555 -0.0025 0.5
0.05334 0.000555 0.0025 0.5
0.0445326 0.0298875 -0.00212839 0.5
0.0445326 0.0298875 0.00212839 0.5
0.0536178 0.0002775 -0.0025 0.5
0.0536178 0.0002775 0.0025 0.5
0.0445326 0.0298875 0.0025 0.5
0.0445326 0.0298875 -0.0025 0.5
0.0446484 0.02997 0.0025 0.5
0.0446484 0.02997 -0.0025 0.5
0.0538956 0.0002775 0 0.5
0.0446996 0.0302193 -0.00137688 0.5
0.0446996 0.0302193 0.00137688 0.5
0.0446996 0.0302193 0.0025 0.5
0.0446996 0.0302193 -0.0025 0.5
0.0541734 0.0002775 0.0025 0.5
0.0541734 0.0002775 -0.0025 0.5
0.0448779 0.0306635 -4.35414e-20 0.5
0.0448631 0.0306674 0.0025 0.5
0.0448631 0.0306674 -0.0025 0.5
0.0544513 0.000555 -0.0025 0.5
0.0544513 0.000555 0.0025 0.5
0.0547291 0.0002775 0.0025 0.5
0.0547291 0.0002775 -0.0025 0.5
0.0451391 0.03108 0.0025 0.5
0.0451391 0.03108 -0.0025 0.5
0.0550069 0.0002775 -5.58287e-21 0.5
0.0453648 0.0312762 0.00161619 0.5
0.0453648 0.0312762 -0.00161619 0.5
0.0453648 0.0312762 -0.0025 0.5
0.0453648 0.0312762 0.0025 0.5
0.0552847 0.0002775 0.0025 0.5
0.0552847 0.0002775 -0.0025 0.5
0.0454611 0.031635 5.93502e-19 0.5
0.0555625 0.000555 -0.0025 0.5
0.0555625 0.000555 0.0025 0.5
0.045506 0.0321348 -0.00225131 0.5
0.045506 0.0321348 0.00225131 0.5
0.045506 0.0321348 0.0025 0.5
0.045506 0.0321348 -0.0025 0.5
0.045476 0.03219 0.0025 0.5
0.045476 0.03219 -0.0025 0.5
0.0455216 0.0322296 0.00232158 0.5
0.0455216 0.0322296 -0.00232158 0.5
0.0455216 0.0322296 0.0025 0.5
0.0455216 0.0322296 -0.0025 0.5
0.0558403 0.0002775 0.0025 0.5
0.0558403 0.0002775 -0.0025 0.5
0.0455612 0.0324109 -0.0025 0.5
0.0455612 0.0324109 0.0025 0.5
0.0455608 0.032745 -6.96877e-19 0.5
0.0561181 0.0002775 0 0.5
0.0563959 0.0002775 0.0025 0.5
0.0563959 0.0002775 -0.0025 0.5
0.0456923 0.0331691 -0.00191017 0.5
0.0456923 0.0331691 0.00191017 0.5
0.0456923 0.0331691 0.0025 0.5
0.0456923 0.0331691 -0.0025 0.5
0.0566738 0.000555 -0.0025 0.5
0.0566738 0.000555 0.0025 0.5
0.0459045 0.0333 0.0025 0.5
0.0459045 0.0333 -0.0025 0.5
0.0569516 0.0002775 0.0025 0.5
0.0569516 0.0002775 -0.0025 0.5
0.0572294 0.0002775 0 0.5
0.0462468 0.0337252 -2.74258e-21 0.5
0.0462587 0.0337134 0.0025 0.5
0.0462587 0.0337134 -0.0025 0.5
0.0575072 0.0002775 0.0025 0.5
0.0575072 0.0002775 -0.0025 0.5
0.0464064 0.0341442 -0.00130278 0.5
0.0464064 0.0341442 0.00130278 0.5
0.0464064 0.0341442 0.0025 0.5
0.0464064 0.0341442 -0.0025 0.5
0.057785 0.000555 -0.0025 0.5
0.057785 0.000555 0.0025 0.5
0.0464308 0.03441 0.0025 0.5
0.0464308 0.03441 -0.0025 0.5
0.0465637 0.0345187 0.00201049 0.5
0.0465637 0.0345187 -0.00201049 0.5
0.0465637 0.0345187 0.0025 0.5
0.0465637 0.0345187 -0.0025 0.5
0.0580628 0.0002775 0.0025 0.5
0.0580628 0.0002775 -0.0025 0.5
0.0466412 0.034965 0 0.5
0.0583406 0.0002775 0 0.5
0.0586184 0.0002775 0.0025 0.5
0.0586184 0.0002775 -0.0025 0.5
0.0466564 0.0355039 -0.00242752 0.5
0.0466564 0.0355039 0.00242752 0.5
0.0466429 0.03552 0.0025 0.5
0.0466429 0.03552 -0.0025 0.5
0.0466564 0.0355039 0.0025 0.5
0.0466564 0.0355039 -0.0025 0.5
0.0466581 0.0355344 0.00243505 0.5
0.0466581 0.0355344 -0.00243505 0.5
0.0466581 0.0355344 0.0025 0.5
0.0466581 0.0355344 -0.0025 0.5
0.0466725 0.0356146 -0.0025 0.5
0.0466725 0.0356146 0.0025 0.5
0.0588963 0.000555 -0.0025 0.5
0.0588963 0.000555 0.0025 0.5
0.0466725 0.036075 -2.48412e-20 0.5
0.0591741 0.0002775 0.0025 0.5
0.0591741 0.0002775 -0.0025 0.5
0.0467962 0.0365064 -0.00194341 0.5
0.0467962 0.0365064 0.00194341 0.5
0.0467962 0.0365064 -0.0025 0.5
0.0467962 0.0365064 0.0025 0.5
0.0594519 0.0002775 -7.45167e-21 0.5
0.0469908 0.03663 0.0025 0.5
0.0469908 0.03663 -0.0025 0.5
0.0597297 0.0002775 0.0025 0.5
0.0597297 0.0002775 -0.0025 0.5
0.0600075 0.000555 -0.0025 0.5
0.0600075 0.000555 0.0025 0.5
0.0473223 0.037091 -0.0025 0.5
0.0473223 0.037091 0.0025 0.5
0.0473577 0.0371921 7.01045e-22 0.5
0.0602853 0.0002775 0.0025 0.5
0.0602853 0.0002775 -0.0025 0.5
0.0474314 0.037388 0.0025 0.5
0.0474314 0.037388 -0.0025 0.5
0.0605631 0.0002775 -9.93434e-23 0.5
0.0475033 0.03774 0.0025 0.5
0.0475033 0.03774 -0.0025 0.5
0.0608409 0.0002775 0.0025 0.5
0.0608409 0.0002775 -0.0025 0.5
0.047656 0.0378676 0.00192504 0.5
0.047656 0.0378676 -0.00192504 0.5
0.047656 0.0378676 -0.0025 0.5
0.047656 0.0378676 0.0025 0.5
0.0611187 0.000555 -0.0025 0.5
0.0611187 0.000555 0.0025 0.5
0.0477371 0.038295 3.26479e-21 0.5
0.0613966 0.0002775 -0.0025 0.5
0.0613966 0.0002775 0.0025 0.5
0.0477594 0.0388257 -0.00239034 0.5
0.0477594 0.0388257 0.00239034 0.5
0.0477594 0.0388257 0.0025 0.5
0.0477594 0.0388257 -0.0025 0.5
0.0477407 0.03885 0.0025 0.5
0.0477407 0.03885 -0.0025 0.5
0.047763 0.0388707 0.00240671 0.5
0.047763 0.0388707 -0.00240671 0.5
0.047763 0.0388707 0.0025 0.5
0.047763 0.0388707 -0.0025 0.5
0.0616744 0.0002775 0 0.5
0.0477837 0.0391288 -0.0025 0.5
0.0477837 0.0391288 0.0025 0.5
0.0477837 0.039405 9.03298e-20 0.5
0.0619522 0.0002775 -0.0025 0.5
0.0619522 0.0002775 0.0025 0.5
0.06223 0.000555 -0.0025 0.5
0.06223 0.000555 0.0025 0.5
0.0478413 0.0399025 -0.00224101 0.5
0.0478413 0.0399025 0.00224101 0.5
0.0478413 0.0399025 0.0025 0.5
0.0478413 0.0399025 -0.0025 0.5
0.0479122 0.03996 0.0025 0.5
0.0479122 0.03996 -0.0025 0.5
0.047882 0.0400582 -0.00205775 0.5
0.047882 0.0400582 0.00205775 0.5
0.047882 0.0400582 0.0025 0.5
0.047882 0.0400582 -0.0025 0.5
0.0625078 0.0002775 0.0025 0.5
0.0625078 0.0002775 -0.0025 0.5
0.0479508 0.040515 -3.2309e-20 0.5
0.0627856 0.0002775 3.76374e-21 0.5
0.0480364 0.0408177 -0.00136339 0.5
0.0480364 0.0408177 0.00136339 0.5
0.0480364 0.0408177 0.0025 0.5
0.0480364 0.0408177 -0.0025 0.5
0.0630634 0.0002775 -0.0025 0.5
0.0630634 0.0002775 0.0025 0.5
0.0633413 0.000555 -0.0025 0.5
0.0633413 0.000555 0.0025 0.5
0.0482819 0.04107 0.0025 0.5
0.0482819 0.04107 -0.0025 0.5
0.0636191 0.0002775 0.0025 0.5
0.0636191 0.0002775 -0.0025 0.5
0.0485243 0.0414158 -3.15414e-21 0.5
0.0485477 0.0414169 0.0025 0.5
0.0485477 0.0414169 -0.0025 0.5
0.0638969 0.0002775 -5.95927e-22 0.5
0.0641747 0.0002775 0.0025 0.5
0.0641747 0.0002775 -0.0025 0.5
0.0486795 0.0419648 -0.00153041 0.5
0.0486795 0.0419648 0.00153041 0.5
0.0486795 0.0419648 0.0025 0.5
0.0486795 0.0419648 -0.0025 0.5
0.0486621 0.04218 0.0025 0.5
0.0486621 0.04218 -0.0025 0.5
0.0644525 0.000555 -0.0025 0.5
0.0644525 0.000555 0.0025 0.5
0.048783 0.0422918 0.00199627 0.5
0.048783 0.0422918 -0.00199627 0.5
0.048783 0.0422918 -0.0025 0.5
0.048783 0.0422918 0.0025 0.5
0.0647303 0.0002775 0.0025 0.5
0.0647303 0.0002775 -0.0025 0.5
0.0488436 0.042735 0 0.5
0.0650081 0.0002775 0 0.5
0.048868 0.0432631 0.0023787 0.5
0.048868 0.0432631 -0.0023787 0.5
0.048868 0.0432631 0.0025 0.5
0.048868 0.0432631 -0.0025 0.5
0.0488479 0.04329 -0.0025 0.5
0.0488479 0.04329 0.0025 0.5
0.0652859 0.0002775 0.0025 0.5
0.0652859 0.0002775 -0.0025 0.5
0.0488724 0.0433126 -0.00239839 0.5
0.0488724 0.0433126 0.00239839 0.5
0.0488724 0.0433126 -0.0025 0.5
0.0488724 0.0433126 0.0025 0.5
0.0655638 0.000555 -0.0025 0.5
0.0655638 0.000555 0.0025 0.5
0.048895 0.043845 1.42595e-18 0.5
0.0658416 0.0002775 0.0025 0.5
0.0658416 0.0002775 -0.0025 0.5
0.048895 0.0444 -0.0025 0.5
0.048895 0.0444 0.0025 0.5
0.048895 0.0444004 -0.0025 0.5
0.048895 0.0444004 0.0025 0.5
0.0661194 0.0002775 -1.81913e-21 0.5
0.048895 0.044955 -1.42639e-18 0.5
0.0663972 0.0002775 0.0025 0.5
0.0663972 0.0002775 -0.0025 0.5
0.066675 0.000555 -0.0025 0.5
0.066675 0.000555 0.0025 0.5
0.0489455 0.0454595 -0.00227267 0.5
0.0489455 0.0454595 0.00227267 0.5
0.0489455 0.0454595 0.0025 0.5
0.0489455 0.0454595 -0.0025 0.5
0.0490062 0.04551 0.0025 0.5
0.0490062 0.04551 -0.0025 0.5
0.0489744 0.0455893 -0.00214271 0.5
0.0489744 0.0455893 0.00214271 0.5
0.0489744 0.0455893 0.0025 0.5
0.0489744 0.0455893 -0.0025 0.5
0.0669528 0.0002775 0.0025 0.5
0.0669528 0.0002775 -0.0025 0.5
0.0672306 0.0002775 9.10876e-20 0.5
0.049034 0.046065 1.34717e-18 0.5
0.0675084 0.0002775 0.0025 0.5
0.0675084 0.0002775 -0.0025 0.5
0.0490906 0.0464247 -0.00162007 0.5
0.0490906 0.0464247 0.00162007 0.5
0.0490906 0.0464247 0.0025 0.5
0.0490906 0.0464247 -0.0025 0.5
0.0677863 0.000555 -0.0025 0.5
0.0677863 0.000555 0.0025 0.5
0.0492571 0.04662 -0.0025 0.5
0.0492571 0.04662 0.0025 0.5
0.0680641 0.0002775 0.0025 0.5
0.0680641 0.0002775 -0.0025 0.5
0.0493233 0.0470479 0.0025 0.5
0.0493233 0.0470479 -0.0025 0.5
0.0493559 0.0472003 -1.14787e-18 0.5
0.0683419 0.0002775 1.14121e-19 0.5
0.049364 0.0472615 0.0025 0.5
0.049364 0.0472615 -0.0025 0.5
0.0686197 0.0002775 0.0025 0.5
0.0686197 0.0002775 -0.0025 0.5
0.0494777 0.04773 0.0025 0.5
0.0494777 0.04773 -0.0025 0.5
0.0688975 0.000555 -0.0025 0.5
0.0688975 0.000555 0.0025 0.5
0.0496117 0.0481241 -0.0025 0.5
0.0496117 0.0481241 0.0025 0.5
0.0691753 0.0002775 0.0025 0.5
0.0691753 0.0002775 -0.0025 0.5
0.0496297 0.0482964 9.53416e-19 0.5
0.0496459 0.04848 0.0025 0.5
0.0496459 0.04848 -0.0025 0.5
0.0694531 0.0002775 9.36031e-20 0.5
0.0496078 0.04884 -0.0025 0.5
0.0496078 0.04884 0.0025 0.5
0.0697309 0.0002775 0.0025 0.5
0.0697309 0.0002775 -0.0025 0.5
0.0497334 0.0491125 0.00127237 0.5
0.0497334 0.0491125 -0.00127237 0.5
0.0497334 0.0491125 0.0025 0.5
0.0497334 0.0491125 -0.0025 0.5
0.0700088 0.000555 -0.0025 0.5
0.0700088 0.000555 0.0025 0.5
0.0497517 0.049395 -1.06678e-18 0.5
0.0702866 0.0002775 0.0025 0.5
0.0702866 0.0002775 -0.0025 0.5
0.0497645 0.0497086 -0.00141241 0.5
0.0497645 0.0497086 0.00141241 0.5
0.0497645 0.0497086 0.0025 0.5
0.0497645 0.0497086 -0.0025 0.5
0.0496883 0.04995 0.0025 0.5
0.0496883 0.04995 -0.0025 0.5
0.0705644 0.0002775 2.66209e-19 0.5
0.0497998 0.0501563 -0.00157089 0.5
0.0497998 0.0501563 0.00157089 0.5
0.0497998 0.0501563 -0.0025 0.5
0.0497998 0.0501563 0.0025 0.5
0.0708422 0.0002775 0.0025 0.5
0.0708422 0.0002775 -0.0025 0.5
0.049813 0.050505 8.0117e-20 0.5
0.07112 0.000555 -0.0025 0.5
0.07112 0.000555 0.0025 0.5
0.0498216 0.0508755 0.00166904 0.5
0.0498216 0.0508755 -0.00166904 0.5
0.0498216 0.0508755 0.0025 0.5
0.0498216 0.0508755 -0.0025 0.5
0.0497386 0.05106 -0.0025 0.5
0.0497386 0.05106 0.0025 0.5
0.0713978 0.0002775 0.0025 0.5
0.0713978 0.0002775 -0.0025 0.5
0.0498376 0.0512285 0.0017412 0.5
0.0498376 0.0512285 -0.0017412 0.5
0.0498376 0.0512285 0.0025 0.5
0.0498376 0.0512285 -0.0025 0.5
0.0716756 0.0002775 9.36031e-20 0.5
0.0498462 0.051615 1.40913e-18 0.5
0.0719534 0.0002775 0.0025 0.5
0.0719534 0.0002775 -0.0025 0.5
0.0498512 0.0520151 -0.0018022 0.5
0.0498512 0.0520151 0.0018022 0.5
0.0498512 0.0520151 -0.0025 0.5
0.0498512 0.0520151 0.0025 0.5
0.0497684 0.05217 -0.0025 0.5
0.0497684 0.05217 0.0025 0.5
0.0722313 0.000555 -0.0025 0.5
0.0722313 0.000555 0.0025 0.5
0.0498586 0.0523175 -0.00183559 0.5
0.0498586 0.0523175 0.00183559 0.5
0.0498586 0.0523175 -0.0025 0.5
0.0498586 0.0523175 0.0025 0.5
0.0725091 0.0002775 0.0025 0.5
0.0725091 0.0002775 -0.0025 0.5
0.0498635 0.052725 -1.43383e-18 0.5
0.0727869 0.0002775 1.145e-19 0.5
0.0498656 0.0531396 -0.00186737 0.5
0.0498656 0.0531396 0.00186737 0.5
0.0498656 0.0531396 0.0025 0.5
0.0498656 0.0531396 -0.0025 0.5
0.0497837 0.05328 0.0025 0.5
0.0497837 0.05328 -0.0025 0.5
0.0498685 0.0534176 -0.00188012 0.5
0.0498685 0.0534176 0.00188012 0.5
0.0730647 0.0002775 0.0025 0.5
0.0730647 0.0002775 -0.0025 0.5
0.0498685 0.0534176 0.0025 0.5
0.0498685 0.0534176 -0.0025 0.5
0.0498706 0.053835 -6.59378e-18 0.5
0.0733425 0.000555 -0.0025 0.5
0.0733425 0.000555 0.0025 0.5
0.0736203 0.0002775 0.0025 0.5
0.0736203 0.0002775 -0.0025 0.5
0.0498702 0.0542541 0.00188767 0.5
0.0498702 0.0542541 -0.00188767 0.5
0.0498702 0.0542541 0.0025 0.5
0.0498702 0.0542541 -0.0025 0.5
0.0497873 0.05439 0.0025 0.5
0.0497873 0.05439 -0.0025 0.5
0.0738981 0.0002775 1.12679e-19 0.5
0.0498696 0.0545265 0.00188511 0.5
0.0498696 0.0545265 -0.00188511 0.5
0.0498696 0.0545265 0.0025 0.5
0.0498696 0.0545265 -0.0025 0.5
0.0498692 0.054945 6.56648e-18 0.5
0.0741759 0.0002775 0.0025 0.5
0.0741759 0.0002775 -0.0025 0.5
0.0744538 0.000555 -0.0025 0.5
0.0744538 0.000555 0.0025 0.5
0.0498665 0.0553604 0.00187113 0.5
0.0498665 0.0553604 -0.00187113 0.5
0.0498665 0.0553604 0.0025 0.5
0.0498665 0.0553604 -0.0025 0.5
0.0497806 0.0555 -0.0025 0.5
0.0497806 0.0555 0.0025 0.5
0.0498628 0.0556433 -0.00185467 0.5
0.0498628 0.0556433 0.00185467 0.5
0.0498628 0.0556433 -0.0025 0.5
0.0498628 0.0556433 0.0025 0.5
0.0747316 0.0002775 0.0025 0.5
0.0747316 0.0002775 -0.0025 0.5
0.0750094 0.0002775 1.14375e-19 0.5
0.0498601 0.056055 -2.80969e-18 0.5
0.0752872 0.0002775 0.0025 0.5
0.0752872 0.0002775 -0.0025 0.5
0.0498559 0.0564598 0.00182355 0.5
0.0498559 0.0564598 -0.00182355 0.5
0.0498559 0.0564598 0.0025 0.5
0.0498559 0.0564598 -0.0025 0.5
0.0497657 0.05661 0.0025 0.5
0.0497657 0.05661 -0.0025 0.5
0.0498494 0.0567667 0.00179436 0.5
0.0498494 0.0567667 -0.00179436 0.5
0.0498494 0.0567667 0.0025 0.5
0.0498494 0.0567667 -0.0025 0.5
0.075565 0.000555 -0.0025 0.5
0.075565 0.000555 0.0025 0.5
0.0498452 0.057165 3.0806e-18 0.5
0.0758428 0.0002775 0.0025 0.5
0.0758428 0.0002775 -0.0025 0.5
0.0761206 0.0002775 1.14623e-19 0.5
0.0498397 0.0575536 0.00175041 0.5
0.0498397 0.0575536 -0.00175041 0.5
0.0498397 0.0575536 0.0025 0.5
0.0498397 0.0575536 -0.0025 0.5
0.0497443 0.05772 0.0025 0.5
0.0497443 0.05772 -0.0025 0.5
0.0498298 0.0578963 -0.00170605 0.5
0.0498298 0.0578963 0.00170605 0.5
0.0498298 0.0578963 0.0025 0.5
0.0498298 0.0578963 -0.0025 0.5
0.0763984 0.0002775 0.0025 0.5
0.0763984 0.0002775 -0.0025 0.5
0.0498243 0.058275 -1.84879e-18 0.5
0.0766763 0.000555 -0.0025 0.5
0.0766763 0.000555 0.0025 0.5
0.0498176 0.0586416 -0.00165121 0.5
0.0498176 0.0586416 0.00165121 0.5
0.0498176 0.0586416 0.0025 0.5
0.0498176 0.0586416 -0.0025 0.5
0.0769541 0.0002775 0.0025 0.5
0.0769541 0.0002775 -0.0025 0.5
0.0497169 0.05883 -0.0025 0.5
0.0497169 0.05883 0.0025 0.5
0.0772319 0.0002775 1.08196e-19 0.5
0.0498031 0.0590329 0.00158602 0.5
0.0498031 0.0590329 -0.00158602 0.5
0.0498031 0.0590329 -0.0025 0.5
0.0498031 0.0590329 0.0025 0.5
0.0497965 0.059385 1.50661e-18 0.5
0.0775097 0.0002775 0.0025 0.5
0.0775097 0.0002775 -0.0025 0.5
0.049789 0.059723 0.00152237 0.5
0.049789 0.059723 -0.00152237 0.5
0.049789 0.059723 0.0025 0.5
0.049789 0.059723 -0.0025 0.5
0.0777875 0.000555 -0.0025 0.5
0.0777875 0.000555 0.0025 0.5
0.0496838 0.05994 0.0025 0.5
0.0496838 0.05994 -0.0025 0.5
0.0497683 0.0601777 0.00142942 0.5
0.0497683 0.0601777 -0.00142942 0.5
0.0780653 0.0002775 0.0025 0.5
0.0780653 0.0002775 -0.0025 0.5
0.0497683 0.0601777 0.0025 0.5
0.0497683 0.0601777 -0.0025 0.5
0.0497609 0.060495 9.7545e-20 0.5
0.0783431 0.0002775 8.26565e-20 0.5
0.0497531 0.0607971 -0.00136097 0.5
0.0497531 0.0607971 0.00136097 0.5
0.0497531 0.0607971 -0.0025 0.5
0.0497531 0.0607971 0.0025 0.5
0.0786209 0.0002775 0.0025 0.5
0.0786209 0.0002775 -0.0025 0.5
0.0496459 0.06105 0.0025 0.5
0.0496459 0.06105 -0.0025 0.5
0.0788988 0.000555 -0.0025 0.5
0.0788988 0.000555 0.0025 0.5
0.0497246 0.0613313 -0.0025 0.5
0.0497246 0.0613313 0.0025 0.5
0.0497172 0.0616001 6.57703e-19 0.5
0.0791766 0.0002775 0.0025 0.5
0.0791766 0.0002775 -0.0025 0.5
0.0497098 0.0618639 -0.0025 0.5
0.0497098 0.0618639 0.0025 0.5
0.0794544 0.0002775 9.54222e-20 0.5
0.0496052 0.06216 0.0025 0.5
0.0496052 0.06216 -0.0025 0.5
0.0797322 0.0002775 0.0025 0.5
0.0797322 0.0002775 -0.0025 0.5
0.0496729 0.062493 -0.0025 0.5
0.0496729 0.062493 0.0025 0.5
0.0496665 0.0627108 1.71665e-19 0.5
0.08001 0.000555 -0.0025 0.5
0.08001 0.000555 0.0025 0.5
0.0496603 0.0629244 -0.0025 0.5
0.0496603 0.0629244 0.0025 0.5
0.0802878 0.0002775 0.0025 0.5
0.0802878 0.0002775 -0.0025 0.5
0.0495648 0.06327 0.0025 0.5
0.0495648 0.06327 -0.0025 0.5
0.0805656 0.0002775 1.15842e-19 0.5
0.0496173 0.0636586 0.0025 0.5
0.0496173 0.0636586 -0.0025 0.5
0.0496124 0.0638219 6.02127e-22 0.5
0.0808434 0.0002775 0.0025 0.5
0.0808434 0.0002775 -0.0025 0.5
0.0496078 0.063982 0.0025 0.5
0.0496078 0.063982 -0.0025 0.5
0.0811213 0.000555 -0.0025 0.5
0.0811213 0.000555 0.0025 0.5
0.0495268 0.06438 0.0025 0.5
0.0495268 0.06438 -0.0025 0.5
0.0813991 0.0002775 0.0025 0.5
0.0813991 0.0002775 -0.0025 0.5
0.0495586 0.0648271 -0.0025 0.5
0.0495586 0.0648271 0.0025 0.5
0.0816769 0.0002775 9.5745e-20 0.5
0.049558 0.0649355 3.90279e-22 0.5
0.04956 0.0650443 -0.0025 0.5
0.04956 0.0650443 0.0025 0.5
0.0819547 0.0002775 0.0025 0.5
0.0819547 0.0002775 -0.0025 0.5
0.0495344 0.06549 0.0025 0.5
0.0495344 0.06549 -0.0025 0.5
0.0822325 0.000555 -0.0025 0.5
0.0822325 0.000555 0.0025 0.5
0.049627 0.0658688 -0.0025 0.5
0.049627 0.0658688 0.0025 0.5
0.0496293 0.0659275 2.73114e-21 0.5
0.0825103 0.0002775 0.0025 0.5
0.0825103 0.0002775 -0.0025 0.5
0.0500063 0.0658208 -0.0025 0.5
0.0500063 0.0658208 0.0025 0.5
0.0827881 0.0002775 8.32524e-20 0.5
0.0830659 0.0002775 0.0025 0.5
0.0830659 0.0002775 -0.0025 0.5
0.0502841 0.0663225 0.0025 0.5
0.0502841 0.0663225 -0.0025 0.5
0.0833437 0.000555 -0.0025 0.5
0.0833437 0.000555 0.0025 0.5
0.0505619 0.0663225 0 0.5
0.0511175 0.066045 -0.0025 0.5
0.0511175 0.066045 0.0025 0.5
0.0508397 0.0663225 0.0025 0.5
0.0508397 0.0663225 -0.0025 0.5
0.0836216 0.0002775 0.0025 0.5
0.0836216 0.0002775 -0.0025 0.5
0.0838994 0.0002775 3.228e-22 0.5
0.0513953 0.0663225 0.0025 0.5
0.0513953 0.0663225 -0.0025 0.5
0.0516731 0.0663225 0 0.5
0.0841772 0.0002775 0.0025 0.5
0.0841772 0.0002775 -0.0025 0.5
0.0522288 0.066045 -0.0025 0.5
0.0522288 0.066045 0.0025 0.5
0.0519509 0.0663225 0.0025 0.5
0.0519509 0.0663225 -0.0025 0.5
0.084455 0.000555 -0.0025 0.5
0.084455 0.000555 0.0025 0.5
0.0525066 0.0663225 0.0025 0.5
0.0525066 0.0663225 -0.0025 0.5
0.0527844 0.0663225 0 0.5
0.0847328 0.0002775 0.0025 0.5
0.0847328 0.0002775 -0.0025 0.5
0.05334 0.066045 -0.0025 0.5
0.05334 0.066045 0.0025 0.5
0.0530622 0.0663225 0.0025 0.5
0.0530622 0.0663225 -0.0025 0.5
0.0850106 0.0002775 0 0.5
0.0536178 0.0663225 0.0025 0.5
0.0536178 0.0663225 -0.0025 0.5
0.0852884 0.0002775 0.0025 0.5
0.0852884 0.0002775 -0.0025 0.5
0.0538956 0.0663225 0 0.5
0.0855663 0.000555 -0.0025 0.5
0.0855663 0.000555 0.0025 0.5
0.0544513 0.066045 -0.0025 0.5
0.0544513 0.066045 0.0025 0.5