# f_l  POINT_DATA 1419
#  x  y  z  f_l
0.053054 0.00111 0.0025 0.5
0.053054 0.00111 -0.0025 0.5
0.0530458 0.00222 0.0025 0.5
0.0530458 0.00222 -0.0025 0.5
0.053133 0.001665 -7.67306e-20 0.5
0.0531661 0.000555 0 0.5
0.0531411 0.0013087 0.00160494 0.5
0.0531411 0.0013087 -0.00160494 0.5
0.053158 0.000928194 -0.00168105 0.5
0.053158 0.000928194 0.00168105 0.5
0.0531374 0.00201766 -0.00158857 0.5
0.0531374 0.00201766 0.00158857 0.5
0.0531411 0.0013087 0.0025 0.5
0.0531411 0.0013087 -0.0025 0.5
0.0531518 0.002775 1.26165e-19 0.5
0.053158 0.000928194 0.0025 0.5
0.053158 0.000928194 -0.0025 0.5
0.0531473 0.00241249 0.00163293 0.5
0.0531473 0.00241249 -0.00163293 0.5
0.0530706 0.00333 0.0025 0.5
0.0530706 0.00333 -0.0025 0.5
0.0531374 0.00201766 0.0025 0.5
0.0531374 0.00201766 -0.0025 0.5
0.0531473 0.00241249 0.0025 0.5
0.0531473 0.00241249 -0.0025 0.5
0.0531579 0.00314812 -0.00168071 0.5
0.0531579 0.00314812 0.00168071 0.5
0.0531579 0.00314812 0.0025 0.5
0.0531579 0.00314812 -0.0025 0.5
0.0531693 0.00350047 -0.00173211 0.5
0.0531693 0.00350047 0.00173211 0.5
0.0531755 0.003885 3.90348e-21 0.5
0.0531693 0.00350047 -0.0025 0.5
0.0531693 0.00350047 0.0025 0.5
0.0531018 0.00444 0.0025 0.5
0.0531018 0.00444 -0.0025 0.5
0.0531832 0.00428338 0.0017945 0.5
0.0531832 0.00428338 -0.0017945 0.5
0.05334 0.000884524 -0.0025 0.5
0.05334 0.000884524 0.0025 0.5
0.0531832 0.00428338 -0.0025 0.5
0.0531832 0.00428338 0.0025 0.5
0.0531947 0.00458514 0.0018462 0.5
0.0531947 0.00458514 -0.0018462 0.5
0.0532024 0.004995 -1.8844e-19 0.5
0.0531947 0.00458514 -0.0025 0.5
0.0531947 0.00458514 0.0025 0.5
0.053142 0.00555 0.0025 0.5
0.053142 0.00555 -0.0025 0.5
0.0532139 0.00542405 0.00193268 0.5
0.0532139 0.00542405 -0.00193268 0.5
0.0532139 0.00542405 0.0025 0.5
0.0532139 0.00542405 -0.0025 0.5
0.0532234 0.00566651 0.00197517 0.5
0.0532234 0.00566651 -0.00197517 0.5
0.0532234 0.00566651 0.0025 0.5
0.0532234 0.00566651 -0.0025 0.5
0.0532349 0.006105 -1.30017e-19 0.5
0.0536178 0.0002775 -0.0025 0.5
0.0536178 0.0002775 0.0025 0.5
0.0532227 0.00666 -0.0025 0.5
0.0532227 0.00666 0.0025 0.5
0.0532675 0.00658759 -0.00217382 0.5
0.0532675 0.00658759 0.00217382 0.5
0.0532675 0.00658759 0.0025 0.5
0.0532675 0.00658759 -0.0025 0.5
0.0532724 0.00672749 0.00219601 0.5
0.0532724 0.00672749 -0.00219601 0.5
0.0532724 0.00672749 0.0025 0.5
0.0532724 0.00672749 -0.0025 0.5
0.0533078 0.007215 -1.73043e-19 0.5
0.0538956 0.0002775 0 0.5
0.05334 0.00763973 -0.0025 0.5
0.05334 0.00763973 0.0025 0.5
0.053349 0.00776105 -0.00245969 0.5
0.053349 0.00776105 0.00245969 0.5
0.053349 0.00776105 0.0025 0.5
0.053349 0.00776105 -0.0025 0.5
0.0533514 0.00778136 -0.00244881 0.5
0.0533514 0.00778136 0.00244881 0.5
0.0533514 0.00778136 0.0025 0.5
0.0533514 0.00778136 -0.0025 0.5
0.0533569 0.00777 0.0025 0.5
0.0533569 0.00777 -0.0025 0.5
0.0533959 0.008325 -1.27461e-19 0.5
0.0534369 0.00878316 -0.0020638 0.5
0.0534369 0.00878316 0.0020638 0.5
0.0534369 0.00878316 0.0025 0.5
0.0534369 0.00878316 -0.0025 0.5
0.0541734 0.0002775 0.0025 0.5
0.0541734 0.0002775 -0.0025 0.5
0.05347 0.00900986 -0.00191504 0.5
0.05347 0.00900986 0.00191504 0.5
0.05347 0.00900986 0.0025 0.5
0.05347 0.00900986 -0.0025 0.5
0.0535053 0.00888 0.0025 0.5
0.0535053 0.00888 -0.0025 0.5
0.0535123 0.009435 -3.89221e-20 0.5
0.0535499 0.00978036 -0.00155569 0.5
0.0535499 0.00978036 0.00155569 0.5
0.0535499 0.00978036 0.0025 0.5
0.0535499 0.00978036 -0.0025 0.5
0.0544513 0.000555 -0.0025 0.5
0.0544513 0.000555 0.0025 0.5
0.0536582 0.00999 0.0025 0.5
0.0536582 0.00999 -0.0025 0.5
0.0536437 0.0102933 0.0025 0.5
0.0536437 0.0102933 -0.0025 0.5
0.053673 0.0105261 -1.71332e-20 0.5
0.0547291 0.0002775 0.0025 0.5
0.0547291 0.0002775 -0.0025 0.5
0.0537005 0.0107399 0.0025 0.5
0.0537005 0.0107399 -0.0025 0.5
0.0538136 0.0111 0.0025 0.5
0.0538136 0.0111 -0.0025 0.5
0.0550069 0.0002775 -5.58287e-21 0.5
0.0539133 0.0116486 -8.44058e-19 0.5
0.0539127 0.011638 0.0025 0.5
0.0539127 0.011638 -0.0025 0.5
0.0539173 0.0116767 0.0025 0.5
0.0539173 0.0116767 -0.0025 0.5
0.0552847 0.0002775 0.0025 0.5
0.0552847 0.0002775 -0.0025 0.5
0.0539665 0.01221 0.0025 0.5
0.0539665 0.01221 -0.0025 0.5
0.0541084 0.0125524 -0.0025 0.5
0.0541084 0.0125524 0.0025 0.5
0.0541308 0.0127804 5.6495e-19 0.5
0.0555625 0.000555 -0.0025 0.5
0.0555625 0.000555 0.0025 0.5
0.0541548 0.0130238 -0.0025 0.5
0.0541548 0.0130238 0.0025 0.5
0.0541115 0.01332 0.0025 0.5
0.0541115 0.01332 -0.0025 0.5
0.0558403 0.0002775 0.0025 0.5
0.0558403 0.0002775 -0.0025 0.5
0.0542446 0.0135264 0.00157035 0.5
0.0542446 0.0135264 -0.00157035 0.5
0.0542446 0.0135264 0.0025 0.5
0.0542446 0.0135264 -0.0025 0.5
0.0542733 0.013875 2.67963e-19 0.5
0.0561181 0.0002775 0 0.5
0.0543029 0.0142818 -0.00183261 0.5
0.0543029 0.0142818 0.00183261 0.5
0.0542429 0.01443 0.0025 0.5
0.0542429 0.01443 -0.0025 0.5
0.0543029 0.0142818 0.0025 0.5
0.0543029 0.0142818 -0.0025 0.5
0.0543384 0.0145427 -0.0019922 0.5
0.0543384 0.0145427 0.0019922 0.5
0.0543384 0.0145427 -0.0025 0.5
0.0543384 0.0145427 0.0025 0.5
0.0543665 0.014985 2.24891e-20 0.5
0.0563959 0.0002775 0.0025 0.5
0.0563959 0.0002775 -0.0025 0.5
0.0544453 0.01554 0.0025 0.5
0.0544453 0.01554 -0.0025 0.5
0.0544476 0.0155363 -0.00248343 0.5
0.0544476 0.0155363 0.00248343 0.5
0.0544476 0.0155363 0.0025 0.5
0.0544476 0.0155363 -0.0025 0.5
0.0544482 0.0155431 -0.00248621 0.5
0.0544482 0.0155431 0.00248621 0.5
0.0544482 0.0155431 -0.0025 0.5
0.0544482 0.0155431 0.0025 0.5
0.0544513 0.015561 -0.0025 0.5
0.0544513 0.015561 0.0025 0.5
0.0566738 0.000555 -0.0025 0.5
0.0566738 0.000555 0.0025 0.5
0.0545405 0.016095 1.26831e-19 0.5
0.0569516 0.0002775 0.0025 0.5
0.0569516 0.0002775 -0.0025 0.5
0.0546094 0.016492 -0.00178835 0.5
0.0546094 0.016492 0.00178835 0.5
0.0546094 0.016492 0.0025 0.5
0.0546094 0.016492 -0.0025 0.5
0.0572294 0.0002775 0 0.5
0.0547445 0.01665 0.0025 0.5
0.0547445 0.01665 -0.0025 0.5
0.0547616 0.01696 0.0025 0.5
0.0547616 0.01696 -0.0025 0.5
0.054808 0.017177 -8.56709e-23 0.5
0.0575072 0.0002775 0.0025 0.5
0.0575072 0.0002775 -0.0025 0.5
0.0548458 0.0173659 0.0025 0.5
0.0548458 0.0173659 -0.0025 0.5
0.057785 0.000555 -0.0025 0.5
0.057785 0.000555 0.0025 0.5
0.0550026 0.01776 0.0025 0.5
0.0550026 0.01776 -0.0025 0.5
0.0580628 0.0002775 0.0025 0.5
0.0580628 0.0002775 -0.0025 0.5
0.0551765 0.0182728 6.07615e-21 0.5
0.0551645 0.0181575 0.0025 0.5
0.0551645 0.0181575 -0.0025 0.5
0.0552226 0.0185304 -0.0025 0.5
0.0552226 0.0185304 0.0025 0.5
0.0583406 0.0002775 0 0.5
0.0552152 0.01887 0.0025 0.5
0.0552152 0.01887 -0.0025 0.5
0.0553615 0.0190708 0.00159556 0.5
0.0553615 0.0190708 -0.00159556 0.5
0.0553615 0.0190708 0.0025 0.5
0.0553615 0.0190708 -0.0025 0.5
0.0586184 0.0002775 0.0025 0.5
0.0586184 0.0002775 -0.0025 0.5
0.0554018 0.019425 3.42069e-20 0.5
0.0554401 0.0198577 -0.00194908 0.5
0.0554401 0.0198577 0.00194908 0.5
0.0553893 0.01998 0.0025 0.5
0.0553893 0.01998 -0.0025 0.5
0.0554401 0.0198577 0.0025 0.5
0.0554401 0.0198577 -0.0025 0.5
0.0588963 0.000555 -0.0025 0.5
0.0588963 0.000555 0.0025 0.5
0.0554742 0.0200682 0.00210282 0.5
0.0554742 0.0200682 -0.00210282 0.5
0.0554742 0.0200682 0.0025 0.5
0.0554742 0.0200682 -0.0025 0.5
0.0555093 0.020535 -3.0805e-19 0.5
0.0591741 0.0002775 0.0025 0.5
0.0591741 0.0002775 -0.0025 0.5
0.0555625 0.020769 -0.0025 0.5
0.0555625 0.020769 0.0025 0.5
0.0594519 0.0002775 -7.45167e-21 0.5
0.0555956 0.0210569 -0.00235095 0.5
0.0555956 0.0210569 0.00235095 0.5
0.0555956 0.0210569 0.0025 0.5
0.0555956 0.0210569 -0.0025 0.5
0.0556202 0.0211477 -0.00224021 0.5
0.0556202 0.0211477 0.00224021 0.5
0.0556367 0.02109 0.0025 0.5
0.0556367 0.02109 -0.0025 0.5
0.0556202 0.0211477 0.0025 0.5
0.0556202 0.0211477 -0.0025 0.5
0.0557189 0.021645 -1.53779e-19 0.5
0.0597297 0.0002775 0.0025 0.5
0.0597297 0.0002775 -0.0025 0.5
0.0557821 0.0219807 -0.00151205 0.5
0.0557821 0.0219807 0.00151205 0.5
0.0557821 0.0219807 0.0025 0.5
0.0557821 0.0219807 -0.0025 0.5
0.0600075 0.000555 -0.0025 0.5
0.0600075 0.000555 0.0025 0.5
0.0559619 0.0222 0.0025 0.5
0.0559619 0.0222 -0.0025 0.5
0.0602853 0.0002775 0.0025 0.5
0.0602853 0.0002775 -0.0025 0.5
0.0561186 0.022755 -2.21885e-19 0.5
0.0605631 0.0002775 -9.93434e-23 0.5
0.0561185 0.0227546 0.0025 0.5
0.0561185 0.0227546 -0.0025 0.5
0.0561188 0.0227556 0.0025 0.5
0.0561188 0.0227556 -0.0025 0.5
0.0608409 0.0002775 0.0025 0.5
0.0608409 0.0002775 -0.0025 0.5
0.0562396 0.02331 0.0025 0.5
0.0562396 0.02331 -0.0025 0.5
0.0564114 0.0235721 0.00131952 0.5
0.0564114 0.0235721 -0.00131952 0.5
0.0611187 0.000555 -0.0025 0.5
0.0611187 0.000555 0.0025 0.5
0.0564114 0.0235721 0.0025 0.5
0.0564114 0.0235721 -0.0025 0.5
0.0564559 0.023865 6.47845e-20 0.5
0.0613966 0.0002775 -0.0025 0.5
0.0613966 0.0002775 0.0025 0.5
0.0565006 0.0242471 -0.00172102 0.5
0.0565006 0.0242471 0.00172102 0.5
0.0565006 0.0242471 0.0025 0.5
0.0565006 0.0242471 -0.0025 0.5
0.0564541 0.02442 0.0025 0.5
0.0564541 0.02442 -0.0025 0.5
0.0616744 0.0002775 0 0.5
0.0565605 0.0245331 0.00199066 0.5
0.0565605 0.0245331 -0.00199066 0.5
0.0565605 0.0245331 0.0025 0.5
0.0565605 0.0245331 -0.0025 0.5
0.0566025 0.024975 -3.90506e-19 0.5
0.0619522 0.0002775 -0.0025 0.5
0.0619522 0.0002775 0.0025 0.5
0.0566294 0.02553 -0.0025 0.5
0.0566294 0.02553 0.0025 0.5
0.0566471 0.0255034 -0.00238003 0.5
0.0566471 0.0255034 0.00238003 0.5
0.0566471 0.0255034 -0.0025 0.5
0.0566471 0.0255034 0.0025 0.5
0.0566524 0.0255513 0.00240392 0.5
0.0566524 0.0255513 -0.00240392 0.5
0.0566524 0.0255513 0.0025 0.5
0.0566524 0.0255513 -0.0025 0.5
0.0566738 0.0257051 -0.0025 0.5
0.0566738 0.0257051 0.0025 0.5
0.06223 0.000555 -0.0025 0.5
0.06223 0.000555 0.0025 0.5
0.056695 0.026085 3.49063e-20 0.5
0.0625078 0.0002775 0.0025 0.5
0.0625078 0.0002775 -0.0025 0.5
0.0567778 0.0265361 -0.0020319 0.5
0.0567778 0.0265361 0.0020319 0.5
0.0567778 0.0265361 0.0025 0.5
0.0567778 0.0265361 -0.0025 0.5
0.0627856 0.0002775 3.76374e-21 0.5
0.0569063 0.02664 0.0025 0.5
0.0569063 0.02664 -0.0025 0.5
0.0569318 0.0268977 -0.00133903 0.5
0.0569318 0.0268977 0.00133903 0.5
0.0569318 0.0268977 0.0025 0.5
0.0569318 0.0268977 -0.0025 0.5
0.0630634 0.0002775 -0.0025 0.5
0.0630634 0.0002775 0.0025 0.5
0.0570742 0.0274033 -8.15009e-20 0.5
0.0570504 0.0273738 0.0025 0.5
0.0570504 0.0273738 -0.0025 0.5
0.0633413 0.000555 -0.0025 0.5
0.0633413 0.000555 0.0025 0.5
0.0572345 0.02775 0.0025 0.5
0.0572345 0.02775 -0.0025 0.5
0.0636191 0.0002775 0.0025 0.5
0.0636191 0.0002775 -0.0025 0.5
0.0638969 0.0002775 -5.95927e-22 0.5
0.0574198 0.0281148 0.0025 0.5
0.0574198 0.0281148 -0.0025 0.5
0.0574582 0.0283309 1.82648e-19 0.5
0.0641747 0.0002775 0.0025 0.5
0.0641747 0.0002775 -0.0025 0.5
0.0574975 0.0285729 -0.0025 0.5
0.0574975 0.0285729 0.0025 0.5
0.0574774 0.02886 -0.0025 0.5
0.0574774 0.02886 0.0025 0.5
0.0644525 0.000555 -0.0025 0.5
0.0644525 0.000555 0.0025 0.5
0.0576163 0.0290286 0.00174076 0.5
0.0576163 0.0290286 -0.00174076 0.5
0.0576163 0.0290286 0.0025 0.5
0.0576163 0.0290286 -0.0025 0.5
0.0576608 0.029415 -2.05474e-18 0.5
0.0647303 0.0002775 0.0025 0.5
0.0647303 0.0002775 -0.0025 0.5
0.0650081 0.0002775 0 0.5
0.0576989 0.029884 0.00211264 0.5
0.0576989 0.029884 -0.00211264 0.5
0.0576989 0.029884 0.0025 0.5
0.0576989 0.029884 -0.0025 0.5
0.0576557 0.02997 0.0025 0.5
0.0576557 0.02997 -0.0025 0.5
0.0577214 0.0300335 0.00221377 0.5
0.0577214 0.0300335 -0.00221377 0.5
0.0577214 0.0300335 0.0025 0.5
0.0577214 0.0300335 -0.0025 0.5
0.0577557 0.030525 2.17048e-18 0.5
0.0652859 0.0002775 0.0025 0.5
0.0652859 0.0002775 -0.0025 0.5
0.057785 0.0309138 -0.0025 0.5
0.057785 0.0309138 0.0025 0.5
0.0655638 0.000555 -0.0025 0.5
0.0655638 0.000555 0.0025 0.5
0.0577962 0.0310689 -0.00244981 0.5
0.0577962 0.0310689 0.00244981 0.5
0.0577962 0.0310689 0.0025 0.5
0.0577962 0.0310689 -0.0025 0.5
0.0577986 0.0310936 0.00243892 0.5
0.0577986 0.0310936 -0.00243892 0.5
0.0577986 0.0310936 0.0025 0.5
0.0577986 0.0310936 -0.0025 0.5
0.0578084 0.03108 0.0025 0.5
0.0578084 0.03108 -0.0025 0.5
0.0658416 0.0002775 0.0025 0.5
0.0658416 0.0002775 -0.0025 0.5
0.0578406 0.031635 -2.67635e-20 0.5
0.0661194 0.0002775 -1.81913e-21 0.5
0.0579299 0.0320453 -0.001848 0.5
0.0579299 0.0320453 0.001848 0.5
0.0579299 0.0320453 0.0025 0.5
0.0579299 0.0320453 -0.0025 0.5
0.0663972 0.0002775 0.0025 0.5
0.0663972 0.0002775 -0.0025 0.5
0.0581057 0.03219 0.0025 0.5
0.0581057 0.03219 -0.0025 0.5
0.066675 0.000555 -0.0025 0.5
0.066675 0.000555 0.0025 0.5
0.0583097 0.0327475 5.40041e-20 0.5
0.0582921 0.0326966 0.0025 0.5
0.0582921 0.0326966 -0.0025 0.5
0.0583155 0.0327701 -0.0025 0.5
0.0583155 0.0327701 0.0025 0.5
0.0669528 0.0002775 0.0025 0.5
0.0669528 0.0002775 -0.0025 0.5
0.0672306 0.0002775 9.10876e-20 0.5
0.0584312 0.0333 0.0025 0.5
0.0584312 0.0333 -0.0025 0.5
0.0675084 0.0002775 0.0025 0.5
0.0675084 0.0002775 -0.0025 0.5
0.058595 0.0336009 0.0025 0.5
0.058595 0.0336009 -0.0025 0.5
0.058607 0.0336856 -2.03613e-20 0.5
0.0677863 0.000555 -0.0025 0.5
0.0677863 0.000555 0.0025 0.5
0.0586527 0.0341668 -0.00140432 0.5
0.0586527 0.0341668 0.00140432 0.5
0.0586527 0.0341668 0.0025 0.5
0.0586527 0.0341668 -0.0025 0.5
0.0585898 0.03441 0.0025 0.5
0.0585898 0.03441 -0.0025 0.5
0.0680641 0.0002775 0.0025 0.5
0.0680641 0.0002775 -0.0025 0.5
0.0587092 0.0345968 0.00165847 0.5
0.0587092 0.0345968 -0.00165847 0.5
0.0587092 0.0345968 -0.0025 0.5
0.0587092 0.0345968 0.0025 0.5
0.0683419 0.0002775 1.14121e-19 0.5
0.0587319 0.034965 -1.74937e-20 0.5
0.0587694 0.0353933 -0.0019294 0.5
0.0587694 0.0353933 0.0019294 0.5
0.0587694 0.0353933 0.0025 0.5
0.0587694 0.0353933 -0.0025 0.5
0.0686197 0.0002775 0.0025 0.5
0.0686197 0.0002775 -0.0025 0.5
0.0587176 0.03552 0.0025 0.5
0.0587176 0.03552 -0.0025 0.5
0.0588046 0.0356116 0.0020876 0.5
0.0588046 0.0356116 -0.0020876 0.5
0.0588046 0.0356116 0.0025 0.5
0.0588046 0.0356116 -0.0025 0.5
0.0688975 0.000555 -0.0025 0.5
0.0688975 0.000555 0.0025 0.5
0.0588391 0.036075 -4.18745e-20 0.5
0.0691753 0.0002775 0.0025 0.5
0.0691753 0.0002775 -0.0025 0.5
0.0588609 0.0365947 -0.00234091 0.5
0.0588609 0.0365947 0.00234091 0.5
0.0588348 0.03663 0.0025 0.5
0.0588348 0.03663 -0.0025 0.5
0.0588609 0.0365947 0.0025 0.5
0.0588609 0.0365947 -0.0025 0.5
0.0588661 0.0366601 0.00236454 0.5
0.0588661 0.0366601 -0.00236454 0.5
0.0588661 0.0366601 0.0025 0.5
0.0588661 0.0366601 -0.0025 0.5
0.0694531 0.0002775 9.36031e-20 0.5
0.0588864 0.037185 0 0.5
0.0697309 0.0002775 0.0025 0.5
0.0697309 0.0002775 -0.0025 0.5
0.0588963 0.0375177 -0.0025 0.5
0.0588963 0.0375177 0.0025 0.5
0.0589038 0.0377324 -0.00246586 0.5
0.0589038 0.0377324 0.00246586 0.5
0.0589038 0.0377324 0.0025 0.5
0.0589038 0.0377324 -0.0025 0.5
0.0589046 0.0377483 -0.00246252 0.5
0.0589046 0.0377483 0.00246252 0.5
0.0589046 0.0377483 0.0025 0.5
0.0589046 0.0377483 -0.0025 0.5
0.0589118 0.03774 0.0025 0.5
0.0589118 0.03774 -0.0025 0.5
0.0700088 0.000555 -0.0025 0.5
0.0700088 0.000555 0.0025 0.5
0.0589225 0.038295 2.21894e-20 0.5
0.0702866 0.0002775 0.0025 0.5
0.0702866 0.0002775 -0.0025 0.5
0.0705644 0.0002775 2.66209e-19 0.5
0.058976 0.0387703 -0.0021412 0.5
0.058976 0.0387703 0.0021412 0.5
0.058976 0.0387703 0.0025 0.5
0.058976 0.0387703 -0.0025 0.5
0.0590657 0.03885 0.0025 0.5
0.0590657 0.03885 -0.0025 0.5
0.0590301 0.0389837 -0.00189768 0.5
0.0590301 0.0389837 0.00189768 0.5
0.0590301 0.0389837 0.0025 0.5
0.0590301 0.0389837 -0.0025 0.5
0.0708422 0.0002775 0.0025 0.5
0.0708422 0.0002775 -0.0025 0.5
0.0590913 0.039405 -2.2283e-20 0.5
0.07112 0.000555 -0.0025 0.5
0.07112 0.000555 0.0025 0.5
0.0591239 0.0397326 -0.00147577 0.5
0.0591239 0.0397326 0.00147577 0.5
0.0591239 0.0397326 0.0025 0.5
0.0591239 0.0397326 -0.0025 0.5
0.0713978 0.0002775 0.0025 0.5
0.0713978 0.0002775 -0.0025 0.5
0.0592667 0.03996 0.0025 0.5
0.0592667 0.03996 -0.0025 0.5
0.0716756 0.0002775 9.36031e-20 0.5
0.0592528 0.0403161 0.0025 0.5
0.0592528 0.0403161 -0.0025 0.5
0.059274 0.040502 -1.36115e-19 0.5
0.0592919 0.0406748 0.0025 0.5
0.0592919 0.0406748 -0.0025 0.5
0.0719534 0.0002775 0.0025 0.5
0.0719534 0.0002775 -0.0025 0.5
0.059408 0.04107 0.0025 0.5
0.059408 0.04107 -0.0025 0.5
0.0722313 0.000555 -0.0025 0.5
0.0722313 0.000555 0.0025 0.5
0.0725091 0.0002775 0.0025 0.5
0.0725091 0.0002775 -0.0025 0.5
0.0594798 0.0416131 -1.19823e-21 0.5
0.0594794 0.0415975 0.0025 0.5
0.0594794 0.0415975 -0.0025 0.5
0.0594848 0.0416579 0.0025 0.5
0.0594848 0.0416579 -0.0025 0.5
0.0727869 0.0002775 1.145e-19 0.5
0.0595114 0.04218 0.0025 0.5
0.0595114 0.04218 -0.0025 0.5
0.0730647 0.0002775 0.0025 0.5
0.0730647 0.0002775 -0.0025 0.5
0.0596154 0.0425716 0.0025 0.5
0.0596154 0.0425716 -0.0025 0.5
0.0596256 0.0427415 -3.06704e-21 0.5
0.0733425 0.000555 -0.0025 0.5
0.0733425 0.000555 0.0025 0.5
0.0596351 0.042918 0.0025 0.5
0.0596351 0.042918 -0.0025 0.5
0.0736203 0.0002775 0.0025 0.5
0.0736203 0.0002775 -0.0025 0.5
0.0595869 0.04329 0.0025 0.5
0.0595869 0.04329 -0.0025 0.5
0.0738981 0.0002775 1.12679e-19 0.5
0.0596974 0.0435998 0.0025 0.5
0.0596974 0.0435998 -0.0025 0.5
0.0597072 0.0438512 1.3925e-21 0.5
0.0741759 0.0002775 0.0025 0.5
0.0741759 0.0002775 -0.0025 0.5
0.0597161 0.0441089 -0.0025 0.5
0.0597161 0.0441089 0.0025 0.5
0.0596403 0.0444 0.0025 0.5
0.0596403 0.0444 -0.0025 0.5
0.0744538 0.000555 -0.0025 0.5
0.0744538 0.000555 0.0025 0.5
0.0597485 0.0446587 0.0013346 0.5
0.0597485 0.0446587 -0.0013346 0.5
0.0597485 0.0446587 0.0025 0.5
0.0597485 0.0446587 -0.0025 0.5
0.0747316 0.0002775 0.0025 0.5
0.0747316 0.0002775 -0.0025 0.5
0.059757 0.044955 1.36405e-20 0.5
0.0597628 0.0452656 -0.00139893 0.5
0.0597628 0.0452656 0.00139893 0.5
0.0750094 0.0002775 1.14375e-19 0.5
0.0597628 0.0452656 0.0025 0.5
0.0597628 0.0452656 -0.0025 0.5
0.0596765 0.04551 0.0025 0.5
0.0596765 0.04551 -0.0025 0.5
0.0597801 0.0457371 0.00147691 0.5
0.0597801 0.0457371 -0.00147691 0.5
0.0597801 0.0457371 0.0025 0.5
0.0597801 0.0457371 -0.0025 0.5
0.0752872 0.0002775 0.0025 0.5
0.0752872 0.0002775 -0.0025 0.5
0.059786 0.046065 0 0.5
0.075565 0.000555 -0.0025 0.5
0.075565 0.000555 0.0025 0.5
0.0597896 0.0464024 -0.00151969 0.5
0.0597896 0.0464024 0.00151969 0.5
0.0597896 0.0464024 0.0025 0.5
0.0597896 0.0464024 -0.0025 0.5
0.0596993 0.04662 0.0025 0.5
0.0596993 0.04662 -0.0025 0.5
0.0758428 0.0002775 0.0025 0.5
0.0758428 0.0002775 -0.0025 0.5
0.0597986 0.0468287 0.0015601 0.5
0.0597986 0.0468287 -0.0015601 0.5
0.0597986 0.0468287 0.0025 0.5
0.0597986 0.0468287 -0.0025 0.5
0.0761206 0.0002775 1.14623e-19 0.5
0.0598022 0.047175 0 0.5
0.0598043 0.0475271 -0.00158593 0.5
0.0598043 0.0475271 0.00158593 0.5
0.0598043 0.0475271 0.0025 0.5
0.0598043 0.0475271 -0.0025 0.5
0.0763984 0.0002775 0.0025 0.5
0.0763984 0.0002775 -0.0025 0.5
0.0597126 0.04773 0.0025 0.5
0.0597126 0.04773 -0.0025 0.5
0.0598092 0.0479281 0.00160764 0.5
0.0598092 0.0479281 -0.00160764 0.5
0.0598092 0.0479281 0.0025 0.5
0.0598092 0.0479281 -0.0025 0.5
0.0766763 0.000555 -0.0025 0.5
0.0766763 0.000555 0.0025 0.5
0.0598113 0.048285 4.70716e-19 0.5
0.0769541 0.0002775 0.0025 0.5
0.0769541 0.0002775 -0.0025 0.5
0.0598122 0.0486449 -0.00162131 0.5
0.0598122 0.0486449 0.00162131 0.5
0.0598122 0.0486449 -0.0025 0.5
0.0598122 0.0486449 0.0025 0.5
0.0597196 0.04884 -0.0025 0.5
0.0597196 0.04884 0.0025 0.5
0.0772319 0.0002775 1.08196e-19 0.5
0.0598142 0.0490331 0.00163008 0.5
0.0598142 0.0490331 -0.00163008 0.5
0.0598142 0.0490331 0.0025 0.5
0.0598142 0.0490331 -0.0025 0.5
0.0775097 0.0002775 0.0025 0.5
0.0775097 0.0002775 -0.0025 0.5
0.0598151 0.049395 2.09564e-18 0.5
0.0598141 0.0497568 -0.00162988 0.5
0.0598141 0.0497568 0.00162988 0.5
0.0777875 0.000555 -0.0025 0.5
0.0777875 0.000555 0.0025 0.5
0.0598141 0.0497568 -0.0025 0.5
0.0598141 0.0497568 0.0025 0.5
0.0597195 0.04995 0.0025 0.5
0.0597195 0.04995 -0.0025 0.5
0.0598121 0.0501452 -0.00162066 0.5
0.0598121 0.0501452 0.00162066 0.5
0.0598121 0.0501452 -0.0025 0.5
0.0598121 0.0501452 0.0025 0.5
0.0780653 0.0002775 0.0025 0.5
0.0780653 0.0002775 -0.0025 0.5
0.0598111 0.050505 -2.66766e-18 0.5
0.0783431 0.0002775 8.26565e-20 0.5
0.0598083 0.050861 -0.00160368 0.5
0.0598083 0.050861 0.00160368 0.5
0.0598083 0.050861 0.0025 0.5
0.0598083 0.050861 -0.0025 0.5
0.0597108 0.05106 0.0025 0.5
0.0597108 0.05106 -0.0025 0.5
0.0786209 0.0002775 0.0025 0.5
0.0786209 0.0002775 -0.0025 0.5
0.0598018 0.0512654 0.0015746 0.5
0.0598018 0.0512654 -0.0015746 0.5
0.0598018 0.0512654 0.0025 0.5
0.0598018 0.0512654 -0.0025 0.5
0.0788988 0.000555 -0.0025 0.5
0.0788988 0.000555 0.0025 0.5
0.059799 0.051615 2.72618e-18 0.5
0.0791766 0.0002775 0.0025 0.5
0.0791766 0.0002775 -0.0025 0.5
0.0597942 0.051957 -0.00154032 0.5
0.0597942 0.051957 0.00154032 0.5
0.0597942 0.051957 0.0025 0.5
0.0597942 0.051957 -0.0025 0.5
0.059693 0.05217 -0.0025 0.5
0.059693 0.05217 0.0025 0.5
0.0794544 0.0002775 9.54222e-20 0.5
0.0597817 0.0523955 -0.00148412 0.5
0.0597817 0.0523955 0.00148412 0.5
0.0597817 0.0523955 -0.0025 0.5
0.0597817 0.0523955 0.0025 0.5
0.059777 0.052725 -2.47592e-18 0.5
0.0797322 0.0002775 0.0025 0.5
0.0797322 0.0002775 -0.0025 0.5
0.05977 0.0530427 -0.00143128 0.5
0.05977 0.0530427 0.00143128 0.5
0.05977 0.0530427 0.0025 0.5
0.05977 0.0530427 -0.0025 0.5
0.0596644 0.05328 0.0025 0.5
0.0596644 0.05328 -0.0025 0.5
0.08001 0.000555 -0.0025 0.5
0.08001 0.000555 0.0025 0.5
0.0597477 0.0535396 -0.00133083 0.5
0.0597477 0.0535396 0.00133083 0.5
0.0597477 0.0535396 0.0025 0.5
0.0597477 0.0535396 -0.0025 0.5
0.0802878 0.0002775 0.0025 0.5
0.0802878 0.0002775 -0.0025 0.5
0.0597409 0.053835 -4.35255e-18 0.5
0.0805656 0.0002775 1.15842e-19 0.5
0.0597321 0.0541149 -0.00126067 0.5
0.0597321 0.0541149 0.00126067 0.5
0.0597321 0.0541149 0.0025 0.5
0.0597321 0.0541149 -0.0025 0.5
0.0596236 0.05439 0.0025 0.5
0.0596236 0.05439 -0.0025 0.5
0.0808434 0.0002775 0.0025 0.5
0.0808434 0.0002775 -0.0025 0.5
0.0596938 0.0547033 0.0025 0.5
0.0596938 0.0547033 -0.0025 0.5
0.0596853 0.0549391 2.03911e-18 0.5
0.0811213 0.000555 -0.0025 0.5
0.0811213 0.000555 0.0025 0.5
0.0596763 0.0551691 0.0025 0.5
0.0596763 0.0551691 -0.0025 0.5
0.0813991 0.0002775 0.0025 0.5
0.0813991 0.0002775 -0.0025 0.5
0.0595703 0.0555 -0.0025 0.5
0.0595703 0.0555 0.0025 0.5
0.0816769 0.0002775 9.5745e-20 0.5
0.0596123 0.0558947 0.0025 0.5
0.0596123 0.0558947 -0.0025 0.5
0.0596048 0.0560499 4.12383e-18 0.5
0.0595971 0.0562001 -0.0025 0.5
0.0595971 0.0562001 0.0025 0.5
0.0819547 0.0002775 0.0025 0.5
0.0819547 0.0002775 -0.0025 0.5
0.0595059 0.05661 -0.0025 0.5
0.0595059 0.05661 0.0025 0.5
0.0822325 0.000555 -0.0025 0.5
0.0822325 0.000555 0.0025 0.5
0.0594914 0.0571255 -0.0025 0.5
0.0594914 0.0571255 0.0025 0.5
0.0594862 0.0571869 -2.65277e-18 0.5
0.0825103 0.0002775 0.0025 0.5
0.0825103 0.0002775 -0.0025 0.5
0.0594867 0.0571998 -0.0025 0.5
0.0594867 0.0571998 0.0025 0.5
0.0827881 0.0002775 8.32524e-20 0.5
0.0594328 0.05772 0.0025 0.5
0.0594328 0.05772 -0.0025 0.5
0.0830659 0.0002775 0.0025 0.5
0.0830659 0.0002775 -0.0025 0.5
0.0593539 0.0581771 0.0025 0.5
0.0593539 0.0581771 -0.0025 0.5
0.0593474 0.0582794 -1.00929e-18 0.5
0.0593405 0.0583863 0.0025 0.5
0.0593405 0.0583863 -0.0025 0.5
0.0833437 0.000555 -0.0025 0.5
0.0833437 0.000555 0.0025 0.5
0.0593546 0.05883 0.0025 0.5
0.0593546 0.05883 -0.0025 0.5
0.0836216 0.0002775 0.0025 0.5
0.0836216 0.0002775 -0.0025 0.5
0.0592439 0.0591773 0.0025 0.5
0.0592439 0.0591773 -0.0025 0.5
0.0592316 0.0593933 1.1025e-18 0.5
0.0838994 0.0002775 3.228e-22 0.5
0.0592189 0.0596178 0.0025 0.5
0.0592189 0.0596178 -0.0025 0.5
0.0841772 0.0002775 0.0025 0.5
0.0841772 0.0002775 -0.0025 0.5
0.0592758 0.05994 0.0025 0.5
0.0592758 0.05994 -0.0025 0.5
0.0591567 0.0602002 -0.00132804 0.5
0.0591567 0.0602002 0.00132804 0.5
0.0591567 0.0602002 0.0025 0.5
0.0591567 0.0602002 -0.0025 0.5
0.084455 0.000555 -0.0025 0.5
0.084455 0.000555 0.0025 0.5
0.0591418 0.060495 -8.2679e-19 0.5
0.0847328 0.0002775 0.0025 0.5
0.0847328 0.0002775 -0.0025 0.5
0.0591266 0.0608199 -0.00146349 0.5
0.0591266 0.0608199 0.00146349 0.5
0.0591266 0.0608199 0.0025 0.5
0.0591266 0.0608199 -0.0025 0.5
0.0850106 0.0002775 0 0.5
0.0592009 0.06105 0.0025 0.5
0.0592009 0.06105 -0.0025 0.5
0.0590889 0.0612424 -0.00163314 0.5
0.0590889 0.0612424 0.00163314 0.5
0.0590889 0.0612424 0.0025 0.5
0.0590889 0.0612424 -0.0025 0.5
0.0852884 0.0002775 0.0025 0.5
0.0852884 0.0002775 -0.0025 0.5
0.0590734 0.061605 6.75241e-19 0.5
0.0855663 0.000555 -0.0025 0.5
0.0855663 0.000555 0.0025 0.5
0.0590598 0.0619967 -0.00176425 0.5
0.0590598 0.0619967 0.00176425 0.5
0.0590598 0.0619967 0.0025 0.5
0.0590598 0.0619967 -0.0025 0.5
0.0591356 0.06216 -0.0025 0.5
0.0591356 0.06216 0.0025 0.5
0.0590391 0.0623027 -0.00185703 0.5
0.0590391 0.0623027 0.00185703 0.5
0.0590391 0.0623027 -0.0025 0.5
0.0590391 0.0623027 0.0025 0.5
0.0858441 0.0002775 0.0025 0.5
0.0858441 0.0002775 -0.0025 0.5
0.0861219 0.0002775 0 0.5
0.0590257 0.062715 -5.6148e-20 0.5
0.0863997 0.0002775 0.0025 0.5
0.0863997 0.0002775 -0.0025 0.5
0.0590145 0.0631519 -0.00196796 0.5
0.0590145 0.0631519 0.00196796 0.5
0.0590145 0.0631519 0.0025 0.5
0.0590145 0.0631519 -0.0025 0.5
0.0590831 0.06327 0.0025 0.5
0.0590831 0.06327 -0.0025 0.5
0.0590032 0.0633769 -0.00201863 0.5
0.0590032 0.0633769 0.00201863 0.5
0.0590032 0.0633769 0.0025 0.5
0.0590032 0.0633769 -0.0025 0.5
0.0866775 0.000555 -0.0025 0.5
0.0866775 0.000555 0.0025 0.5
0.0589923 0.063825 -2.23442e-19 0.5
0.0869553 0.0002775 0.0025 0.5
0.0869553 0.0002775 -0.0025 0.5
0.0872331 0.0002775 0 0.5
0.0589823 0.0642941 -0.00211299 0.5
0.0589823 0.0642941 0.00211299 0.5
0.0589823 0.0642941 0.0025 0.5
0.0589823 0.0642941 -0.0025 0.5
0.0590398 0.06438 0.0025 0.5
0.0590398 0.06438 -0.0025 0.5
0.0589754 0.064459 -0.00214405 0.5
0.0589754 0.064459 0.00214405 0.5
0.0589754 0.064459 0.0025 0.5
0.0589754 0.064459 -0.0025 0.5
0.0875109 0.0002775 0.0025 0.5
0.0875109 0.0002775 -0.0025 0.5
0.0589656 0.064935 -1.67527e-19 0.5
0.0877888 0.000555 -0.0025 0.5
0.0877888 0.000555 0.0025 0.5
0.0880666 0.0002775 -0.00125 0.5
0.0880666 0.0002775 0.00125 0.5
0.0589953 0.0653911 -0.00205444 0.5
0.0589953 0.0653911 0.00205444 0.5
0.0880666 0.0002775 0.0025 0.5
0.0880666 0.0002775 -0.0025 0.5
0.0589953 0.0653911 0.0025 0.5
0.0589953 0.0653911 -0.0025 0.5
0.0590838 0.06549 0.0025 0.5
0.0590838 0.06549 -0.0025 0.5
0.0590273 0.0656209 -0.00191056 0.5
0.0590273 0.0656209 0.00191056 0.5
0.0590273 0.0656209 0.0025 0.5
0.0590273 0.0656209 -0.0025 0.5
0.0883444 0.0002775 0 0.5
0.0883444 0.00111 0.0025 0.5
0.0883444 0.00111 -0.0025 0.5
0.0883444 0.00222 0.0025 0.5
0.0883444 0.00222 -0.0025 0.5
0.0883444 0.00333 0.0025 0.5
0.0883444 0.00333 -0.0025 0.5
0.0883444 0.00444 0.0025 0.5
0.0883444 0.00444 -0.0025 0.5
0.0883444 0.00555 0.0025 0.5
0.0883444 0.00555 -0.0025 0.5
0.0886222 0.000555 0 0.5
0.0883444 0.00666 0.0025 0.5
0.0883444 0.00666 -0.0025 0.5
0.0886222 0.0002775 -0.00125 0.5
0.0886222 0.0002775 0.00125 0.5
0.0886222 0.0008325 0.00125 0.5
0.0886222 0.0008325 -0.00125 0.5
0.0886222 0.001665 0 0.5
0.0886222 0.0002775 0.0025 0.5
0.0886222 0.0002775 -0.0025 0.5
0.0886222 0.0008325 0.0025 0.5
0.0886222 0.0008325 -0.0025 0.5
0.0886222 0.002775 0 0.5
0.0886222 0.0013875 0.0025 0.5
0.0886222 0.0013875 -0.0025 0.5
0.0886222 0.0019425 0.0025 0.5
0.0886222 0.0019425 -0.0025 0.5
0.0886222 0.0024975 0.0025 0.5
0.0886222 0.0024975 -0.0025 0.5
0.0886222 0.003885 0 0.5
0.0886222 0.0030525 0.0025 0.5
0.0886222 0.0030525 -0.0025 0.5
0.0883444 0.00777 0.0025 0.5
0.0883444 0.00777 -0.0025 0.5
0.0886222 0.0036075 0.0025 0.5
0.0886222 0.0036075 -0.0025 0.5
0.0886222 0.0041625 0.0025 0.5
0.0886222 0.0041625 -0.0025 0.5
0.0886222 0.004995 -1.81603e-19 0.5
0.0886222 0.0047175 0.0025 0.5
0.0886222 0.0047175 -0.0025 0.5
0.0886222 0.0052725 0.0025 0.5
0.0886222 0.0052725 -0.0025 0.5
0.0883444 0.00888 0.0025 0.5
0.0883444 0.00888 -0.0025 0.5
0.0886222 0.006105 -4.31797e-21 0.5
0.0886222 0.0058275 0.0025 0.5
0.0886222 0.0058275 -0.0025 0.5
0.0886222 0.0063825 0.0025 0.5
0.0886222 0.0063825 -0.0025 0.5
0.0592554 0.0662412 0.0025 0.5
0.0592554 0.0662412 -0.0025 0.5
0.0886222 0.007215 3.76366e-21 0.5
0.0886222 0.0069375 -0.0025 0.5
0.0886222 0.0069375 0.0025 0.5
0.0883444 0.00999 0.0025 0.5
0.0883444 0.00999 -0.0025 0.5
0.0593995 0.0662281 9.8277e-22 0.5
0.0886222 0.0074925 -0.0025 0.5
0.0886222 0.0074925 0.0025 0.5
0.0886222 0.008325 1.10296e-21 0.5
0.0886222 0.0080475 -0.0025 0.5
0.0886222 0.0080475 0.0025 0.5
0.0886222 0.0086025 -0.0025 0.5
0.0886222 0.0086025 0.0025 0.5
0.0883444 0.0111 0.0025 0.5
0.0883444 0.0111 -0.0025 0.5
0.0886222 0.009435 1.92878e-21 0.5
0.0886222 0.0091575 0.0025 0.5
0.0886222 0.0091575 -0.0025 0.5
0.0596483 0.0662412 0.0025 0.5
0.0596483 0.0662412 -0.0025 0.5
0.0886222 0.0097125 0.0025 0.5
0.0886222 0.0097125 -0.0025 0.5
0.0883444 0.01221 0.0025 0.5
0.0883444 0.01221 -0.0025 0.5
0.0600075 0.0659939 -0.0025 0.5
0.0600075 0.0659939 0.0025 0.5
0.0886222 0.010545 3.88923e-21 0.5
0.0886222 0.0102675 0.0025 0.5
0.0886222 0.0102675 -0.0025 0.5
0.0886222 0.0108225 0.0025 0.5
0.0886222 0.0108225 -0.0025 0.5
0.0883444 0.01332 0.0025 0.5
0.0883444 0.01332 -0.0025 0.5
0.0886222 0.0113775 0.0025 0.5
0.0886222 0.0113775 -0.0025 0.5
0.0886222 0.011655 2.78619e-21 0.5
0.0886222 0.0119325 0.0025 0.5
0.0886222 0.0119325 -0.0025 0.5
0.0886222 0.0124875 -0.0025 0.5
0.0886222 0.0124875 0.0025 0.5
0.0886222 0.012765 1.81655e-19 0.5
0.0883444 0.01443 0.0025 0.5
0.0883444 0.01443 -0.0025 0.5
0.0886222 0.0130425 -0.0025 0.5
0.0886222 0.0130425 0.0025 0.5
0.0602853 0.0663225 0.0025 0.5
0.0602853 0.0663225 -0.0025 0.5
0.0886222 0.0135975 0.0025 0.5
0.0886222 0.0135975 -0.0025 0.5
0.0886222 0.013875 0 0.5
0.0883444 0.01554 0.0025 0.5
0.0883444 0.01554 -0.0025 0.5
0.0886222 0.0141525 0.0025 0.5
0.0886222 0.0141525 -0.0025 0.5
0.0605631 0.0663225 0 0.5
0.0886222 0.0147075 -0.0025 0.5
0.0886222 0.0147075 0.0025 0.5
0.0886222 0.014985 7.52748e-21 0.5
0.0883444 0.01665 0.0025 0.5
0.0883444 0.01665 -0.0025 0.5
0.0886222 0.0152625 -0.0025 0.5
0.0886222 0.0152625 0.0025 0.5
0.0611187 0.066045 -0.0025 0.5
0.0611187 0.066045 0.0025 0.5
0.0608409 0.0663225 0.0025 0.5
0.0608409 0.0663225 -0.0025 0.5
0.0886222 0.0158175 0.0025 0.5
0.0886222 0.0158175 -0.0025 0.5
0.0886222 0.016095 0 0.5
0.0883444 0.01776 0.0025 0.5
0.0883444 0.01776 -0.0025 0.5