0 	0 	0 	0
0.000446734 	-2.50951e-05 	0.000230658 	-6.82517e-27
0.000893467 	-5.01902e-05 	0.000461316 	-1.36503e-26
0.0013402 	-8.6547e-05 	0.000581407 	-1.52384e-26
0.00178693 	-0.000133616 	0.000596324 	-1.18448e-26
0.00223367 	-0.000181177 	0.000609383 	-8.45022e-27
0.0026804 	-0.000247921 	0.000549966 	-5.01866e-27
0.00312714 	-0.000314665 	0.000490549 	-1.5871e-27
0.00357387 	-0.00039822 	0.000446333 	0
0.0040206 	-0.000496241 	0.000415196 	0
0.00446734 	-0.000596503 	0.000387598 	0
0.00491407 	-0.000739371 	0.000427238 	0
0.0053608 	-0.000882239 	0.000466878 	0
0.00580754 	-0.00105439 	0.00054378 	0
0.00625427 	-0.00124932 	0.000649664 	0
0.00670101 	-0.0014482 	0.000758878 	-3.40906e-28
0.00714774 	-0.00169595 	0.000909175 	-4.88632e-27
0.00759447 	-0.00194369 	0.00105947 	-9.43173e-27
0.00804121 	-0.00222058 	0.00122364 	-1.33553e-26
0.00848794 	-0.00251794 	0.00139756 	-1.68422e-26
0.00893467 	-0.00281959 	0.00157219 	-1.95259e-26
0.00938141 	-0.00315978 	0.00175333 	-1.49805e-26
0.00982814 	-0.00349998 	0.00193446 	-1.04351e-26
0.0102749 	-0.00386001 	0.00211152 	-6.53801e-27
0.0107216 	-0.00423259 	0.00228599 	-3.05107e-27
0.0111683 	-0.00460757 	0.00245809 	4.59335e-29
0.0116151 	-0.00499941 	0.00261351 	4.13402e-28
0.0120618 	-0.00539125 	0.00276892 	7.8087e-28
0.0125085 	-0.00578655 	0.00290559 	1.65725e-27
0.0129553 	-0.0061838 	0.0030316 	2.823e-27
0.013402 	-0.00657998 	0.00315209 	3.75877e-27
0.0138487 	-0.00697003 	0.0032413 	3.39131e-27
0.0142955 	-0.00736009 	0.00333051 	3.02384e-27
0.0147422 	-0.00773865 	0.00339269 	2.1275e-27
0.0151889 	-0.00811136 	0.0034411 	9.61748e-28
0.0156357 	-0.00847975 	0.00348221 	0
0.0160824 	-0.00882774 	0.00348892 	0
0.0165291 	-0.00917573 	0.00349562 	0
0.0169759 	-0.00950333 	0.00347461 	0
0.0174226 	-0.00982167 	0.00344101 	0
0.0178693 	-0.0101335 	0.00339992 	0
0.0183161 	-0.010419 	0.00332891 	0
0.0187628 	-0.0107046 	0.00325789 	0
0.0192095 	-0.0109656 	0.00316284 	0
0.0196563 	-0.0112166 	0.00305809 	0
0.020103 	-0.0114596 	0.00294666 	0
0.0205497 	-0.011675 	0.0028122 	0
0.0209965 	-0.0118905 	0.00267774 	0
0.0214432 	-0.0120796 	0.00252441 	0
0.0218899 	-0.0122592 	0.00236435 	0
0.0223367 	-0.01243 	0.00219891 	1.3262e-27
0.0227834 	-0.0125741 	0.00201731 	6.63098e-27
0.0232302 	-0.0127182 	0.00183571 	1.19358e-26
0.0236769 	-0.0128356 	0.00164069 	1.7513e-26
0.0241236 	-0.0129446 	0.00144149 	2.3175e-26
0.0245704 	-0.0130442 	0.0012385 	2.58212e-26
0.0250171 	-0.0131189 	0.0010255 	2.05164e-26
0.0254638 	-0.0131936 	0.000812497 	1.52116e-26
0.0259106 	-0.0132417 	0.000591537 	1.93924e-26
0.0263573 	-0.0132826 	0.00036843 	2.61328e-26
0.026804 	-0.0133135 	0.000143393 	3.45999e-26
0.0272508 	-0.0133209 	-8.61494e-05 	4.70962e-26
0.0276975 	-0.0133283 	-0.000315692 	5.95924e-26
0.0281442 	-0.0133084 	-0.000547397 	5.18585e-26
0.028591 	-0.0132822 	-0.000779603 	3.9456e-26
0.0290377 	-0.0132449 	-0.00101135 	2.70231e-26
0.0294844 	-0.0131846 	-0.00124213 	1.45269e-26
0.0299312 	-0.0131242 	-0.00147291 	2.03064e-27
0.0303779 	-0.0130339 	-0.00169862 	0
0.0308246 	-0.0129379 	-0.00192334 	0
0.0312714 	-0.0128286 	-0.00214404 	0
0.0317181 	-0.0126948 	-0.00235729 	0
0.0321648 	-0.012561 	-0.00257054 	0
0.0326116 	-0.0123923 	-0.00276838 	2.07323e-26
0.0330583 	-0.0122181 	-0.00296377 	4.47696e-26
0.033505 	-0.0120275 	-0.00314966 	6.80588e-26
0.0339518 	-0.0118097 	-0.00331971 	9.01008e-26
0.0343985 	-0.011592 	-0.00348977 	1.12143e-25
0.0348452 	-0.0113328 	-0.00362982 	9.32894e-26
0.035292 	-0.0110684 	-0.00376606 	6.9252e-26
0.0357387 	-0.0107844 	-0.00388511 	4.60127e-26
0.0361854 	-0.0104709 	-0.00397837 	2.39707e-26
0.0366322 	-0.0101575 	-0.00407164 	1.92868e-27
0.0370789 	-0.0097987 	-0.0041174 	-2.51818e-27
0.0375256 	-0.00943558 	-0.00415861 	-5.27783e-27
0.0379724 	-0.00905235 	-0.0041744 	-7.74195e-27
0.0384191 	-0.00864193 	-0.00415579 	-9.80626e-27
0.0388658 	-0.00823151 	-0.00413717 	-1.18706e-26
0.0393126 	-0.00778325 	-0.00405805 	-9.41242e-27
0.0397593 	-0.00733248 	-0.00397489 	-6.65277e-27
0.040206 	-0.00686927 	-0.00386284 	-4.20602e-27
0.0406528 	-0.00639087 	-0.00371548 	-2.14172e-27
0.0410995 	-0.00591247 	-0.00356812 	-7.74115e-29
0.0415462 	-0.00542579 	-0.00336597 	0
0.041993 	-0.00493878 	-0.00316168 	0
0.0424397 	-0.00445923 	-0.00293753 	0
0.0428864 	-0.00398793 	-0.00269144 	0
0.0433332 	-0.00351662 	-0.00244535 	0
0.0437799 	-0.00308706 	-0.00217979 	1.98046e-30
0.0442266 	-0.00265802 	-0.00191399 	3.98599e-30
0.0446734 	-0.00226209 	-0.00165118 	3.25492e-29
0.0451201 	-0.00189926 	-0.00139136 	8.76702e-29
0.0455668 	-0.00153746 	-0.00113192 	1.42077e-28
0.0460136 	-0.00125657 	-0.000902149 	1.40072e-28
0.0464603 	-0.000975679 	-0.000672377 	1.38066e-28
0.046907 	-0.000739757 	-0.00046742 	1.08175e-28
0.0473538 	-0.000544521 	-0.000284915 	5.30539e-29
0.0478005 	-0.000352199 	-0.000104489 	1.83345e-30
0.0482472 	-0.000234663 	2.25501e-05 	5.07255e-29
0.048694 	-0.000117126 	0.000149589 	9.96175e-29
0.0491407 	-3.39941e-05 	0.000245339 	1.71162e-28
0.0495874 	2.09897e-05 	0.000315488 	2.61241e-28
0.0500342 	7.31369e-05 	0.000382163 	3.42635e-28
0.0504809 	8.27347e-05 	0.000396722 	2.93743e-28
0.0509276 	9.23325e-05 	0.000411282 	2.44851e-28
0.0513744 	8.47494e-05 	0.000394573 	3.72993e-28
0.0518211 	6.44674e-05 	0.000354751 	6.31988e-28
0.0522678 	4.44484e-05 	0.000311364 	8.7193e-28
0.0527146 	2.71724e-05 	0.000230794 	9.13192e-28
0.0531613 	9.89636e-06 	0.000150224 	9.54454e-28
0.053608 	2.18662e-06 	8.96216e-05 	7.61515e-28
0.0540548 	8.54429e-07 	4.2331e-05 	4.12441e-28
0.0545015 	-3.23203e-07 	3.44418e-07 	9.79967e-29
0.0549482 	-2.81508e-07 	2.00857e-07 	5.67349e-29
0.055395 	-2.39813e-07 	5.72954e-08 	1.54732e-29
0.0558417 	-2.41335e-07 	3.92024e-09 	0
0.0562884 	-2.68788e-07 	4.65688e-09 	0
0.0567352 	-2.92455e-07 	5.28479e-09 	0
0.0571819 	-2.92378e-07 	5.2307e-09 	0
0.0576286 	-2.92301e-07 	5.17662e-09 	0
0.0580754 	-2.92567e-07 	4.80894e-09 	0
0.0585221 	-2.93019e-07 	4.27241e-09 	0
0.0589688 	-2.93487e-07 	3.67319e-09 	-1.71431e-30
0.0594156 	-2.94037e-07 	2.75091e-09 	-1.22639e-29
0.0598623 	-2.94586e-07 	1.82863e-09 	-2.28135e-29
0.060309 	-2.95039e-07 	6.81711e-10 	-3.43055e-29
0.0607558 	-2.95446e-07 	-5.73364e-10 	-4.62513e-29
0.0612025 	-2.95801e-07 	-1.88145e-09 	-5.39793e-29
0.0616492 	-2.95932e-07 	-3.41926e-09 	-4.34297e-29
0.062096 	-2.96063e-07 	-4.95706e-09 	-3.28801e-29
0.0625427 	-2.95953e-07 	-6.65769e-09 	-2.13532e-29
0.0629894 	-2.95739e-07 	-8.42809e-09 	-9.40734e-30
0.0634362 	-2.95444e-07 	-1.02381e-08 	0
0.0638829 	-2.94847e-07 	-1.21947e-08 	0
0.0643296 	-2.94251e-07 	-1.41513e-08 	0
0.0647764 	-2.93363e-07 	-1.62142e-08 	0
0.0652231 	-2.92365e-07 	-1.83174e-08 	0
0.0656698 	-2.9127e-07 	-2.04478e-08 	-2.19346e-30
0.0661166 	-2.89862e-07 	-2.26658e-08 	-1.14291e-29
0.0665633 	-2.88454e-07 	-2.48838e-08 	-2.06647e-29
0.0670101 	-2.86736e-07 	-2.71699e-08 	-3.03722e-29
0.0674568 	-2.84914e-07 	-2.94789e-08 	-4.02369e-29
0.0679035 	-2.82985e-07 	-3.18074e-08 	-4.50878e-29
0.0683503 	-2.8075e-07 	-3.41909e-08 	-3.58522e-29
0.068797 	-2.78516e-07 	-3.65744e-08 	-2.66166e-29
0.0692437 	-2.75962e-07 	-3.90081e-08 	-1.68934e-29
0.0696905 	-2.73315e-07 	-4.14564e-08 	-7.02863e-30
0.0701372 	-2.7055e-07 	-4.39222e-08 	0
0.0705839 	-2.67493e-07 	-4.64314e-08 	0
0.0710307 	-2.64435e-07 	-4.89407e-08 	0
0.0714774 	-2.61049e-07 	-5.14998e-08 	-9.87905e-30
0.0719241 	-2.57581e-07 	-5.40713e-08 	-2.22279e-29
0.0723709 	-2.53985e-07 	-5.66642e-08 	-3.47676e-29
0.0728176 	-2.50106e-07 	-5.93043e-08 	-4.77273e-29
0.0732643 	-2.46227e-07 	-6.19443e-08 	-6.0687e-29
0.0737111 	-2.42007e-07 	-6.46495e-08 	-5.27672e-29
0.0741578 	-2.37715e-07 	-6.73686e-08 	-4.04184e-29
0.0746045 	-2.33283e-07 	-7.01195e-08 	-2.78634e-29
0.0750513 	-2.28574e-07 	-7.29326e-08 	-1.49037e-29
0.075498 	-2.23866e-07 	-7.57457e-08 	-1.94396e-30
0.0759447 	-2.18799e-07 	-7.86553e-08 	0
0.0763915 	-2.13669e-07 	-8.15819e-08 	0
0.0768382 	-2.08383e-07 	-8.45584e-08 	0
0.0772849 	-2.02825e-07 	-8.76228e-08 	0
0.0777317 	-1.97266e-07 	-9.06871e-08 	0
0.0781784 	-1.91326e-07 	-9.3898e-08 	0
0.0786251 	-1.85332e-07 	-9.71299e-08 	0
0.0790719 	-1.79165e-07 	-1.00441e-07 	0
0.0795186 	-1.72727e-07 	-1.03876e-07 	0
0.0799653 	-1.66288e-07 	-1.07312e-07 	0
0.0804121 	-1.59444e-07 	-1.1097e-07 	0
0.0808588 	-1.52554e-07 	-1.14652e-07 	0
0.0813055 	-1.45478e-07 	-1.18459e-07 	0
0.0817523 	-1.38133e-07 	-1.22441e-07 	0
0.082199 	-1.30789e-07 	-1.26424e-07 	0
0.0826457 	-1.23026e-07 	-1.30742e-07 	0
0.0830925 	-1.1523e-07 	-1.35087e-07 	0
0.0835392 	-1.07241e-07 	-1.39623e-07 	0
0.0839859 	-9.90051e-08 	-1.44404e-07 	0
0.0844327 	-9.07691e-08 	-1.49185e-07 	0
0.0848794 	-8.21447e-08 	-1.5446e-07 	0
0.0853261 	-7.34998e-08 	-1.59761e-07 	0
0.0857729 	-6.46911e-08 	-1.65344e-07 	0
0.0862196 	-5.56923e-08 	-1.71253e-07 	0
0.0866663 	-4.66934e-08 	-1.77163e-07 	0
0.0871131 	-3.74332e-08 	-1.83745e-07 	0
0.0875598 	-2.81662e-08 	-1.90344e-07 	0
0.0880065 	-1.88277e-08 	-1.5576e-07 	0
0.0884533 	-9.41383e-09 	-7.78799e-08 	0
0.0889 	-2.94901e-22 	-2.85901e-21 	0
