# f_l  POINT_DATA 1320
#  x  y  z  f_l
0.0621046 0.001665 -1.4234e-20 0.5
0.0620568 0.00222 0.0025 0.5
0.0620568 0.00222 -0.0025 0.5
0.0621102 0.00111 0.0025 0.5
0.0621102 0.00111 -0.0025 0.5
0.0621171 0.00210726 -0.00199215 0.5
0.0621171 0.00210726 0.00199215 0.5
0.0621342 0.002775 -1.0384e-21 0.5
0.0621213 0.00232857 -0.00201092 0.5
0.0621213 0.00232857 0.00201092 0.5
0.0621507 0.00118921 0.00214321 0.5
0.0621507 0.00118921 -0.00214321 0.5
0.0621547 0.00103477 -0.00216111 0.5
0.0621547 0.00103477 0.00216111 0.5
0.0621171 0.00210726 0.0025 0.5
0.0621171 0.00210726 -0.0025 0.5
0.0622091 0.000555 4.34681e-20 0.5
0.0621507 0.00118921 0.0025 0.5
0.0621507 0.00118921 -0.0025 0.5
0.0621547 0.00103477 -0.0025 0.5
0.0621547 0.00103477 0.0025 0.5
0.0621213 0.00232857 0.0025 0.5
0.0621213 0.00232857 -0.0025 0.5
0.062098 0.00333 0.0025 0.5
0.062098 0.00333 -0.0025 0.5
0.0621449 0.00324495 -0.00211688 0.5
0.0621449 0.00324495 0.00211688 0.5
0.0621472 0.00341269 0.00212754 0.5
0.0621472 0.00341269 -0.00212754 0.5
0.0621581 0.003885 1.70216e-20 0.5
0.0621449 0.00324495 0.0025 0.5
0.0621449 0.00324495 -0.0025 0.5
0.06223 0.00101399 0.0025 0.5
0.06223 0.00101399 -0.0025 0.5
0.0621472 0.00341269 0.0025 0.5
0.0621472 0.00341269 -0.0025 0.5
0.0621379 0.00444 0.0025 0.5
0.0621379 0.00444 -0.0025 0.5
0.0621708 0.00438087 -0.00223365 0.5
0.0621708 0.00438087 0.00223365 0.5
0.0621708 0.00438087 0.0025 0.5
0.0621708 0.00438087 -0.0025 0.5
0.0621726 0.00449738 0.00224155 0.5
0.0621726 0.00449738 -0.00224155 0.5
0.0621726 0.00449738 -0.0025 0.5
0.0621726 0.00449738 0.0025 0.5
0.0621856 0.004995 -2.91114e-19 0.5
0.0621865 0.00555 0.0025 0.5
0.0621865 0.00555 -0.0025 0.5
0.0622022 0.0055222 -0.00237478 0.5
0.0622022 0.0055222 0.00237478 0.5
0.0622022 0.0055222 0.0025 0.5
0.0622022 0.0055222 -0.0025 0.5
0.0622031 0.00557683 0.00237916 0.5
0.0622031 0.00557683 -0.00237916 0.5
0.0622031 0.00557683 0.0025 0.5
0.0622031 0.00557683 -0.0025 0.5
0.0622202 0.006105 1.54513e-19 0.5
0.06223 0.00634119 -0.0025 0.5
0.06223 0.00634119 0.0025 0.5
0.0625665 0.000336162 0.0025 0.5
0.0625665 0.000336162 -0.0025 0.5
0.0622408 0.00664925 -0.00245156 0.5
0.0622408 0.00664925 0.00245156 0.5
0.0622408 0.00664925 0.0025 0.5
0.0622408 0.00664925 -0.0025 0.5
0.0622421 0.00667206 -0.00244569 0.5
0.0622421 0.00667206 0.00244569 0.5
0.0622421 0.00667206 0.0025 0.5
0.0622421 0.00667206 -0.0025 0.5
0.062248 0.00666 0.0025 0.5
0.062248 0.00666 -0.0025 0.5
0.0622633 0.007215 -8.21905e-21 0.5
0.0627856 0.000336162 4.55938e-21 0.5
0.0622857 0.00771433 -0.00224925 0.5
0.0622857 0.00771433 0.00224925 0.5
0.0622857 0.00771433 0.0025 0.5
0.0622857 0.00771433 -0.0025 0.5
0.062294 0.0078339 -0.00221214 0.5
0.062294 0.0078339 0.00221214 0.5
0.062294 0.0078339 0.0025 0.5
0.062294 0.0078339 -0.0025 0.5
0.0623188 0.00777 0.0025 0.5
0.0623188 0.00777 -0.0025 0.5
0.062317 0.008325 -4.80662e-20 0.5
0.0623404 0.00876973 0.00200329 0.5
0.0623404 0.00876973 -0.00200329 0.5
0.0623404 0.00876973 0.0025 0.5
0.0623404 0.00876973 -0.0025 0.5
0.0623597 0.00900954 -0.0019165 0.5
0.0623597 0.00900954 0.0019165 0.5
0.0630047 0.000336162 -0.0025 0.5
0.0630047 0.000336162 0.0025 0.5
0.0623597 0.00900954 0.0025 0.5
0.0623597 0.00900954 -0.0025 0.5
0.0623961 0.00888 0.0025 0.5
0.0623961 0.00888 -0.0025 0.5
0.0623832 0.009435 -1.80954e-19 0.5
0.0624068 0.00981337 -0.00170435 0.5
0.0624068 0.00981337 0.00170435 0.5
0.0624068 0.00981337 0.0025 0.5
0.0624068 0.00981337 -0.0025 0.5
0.0624445 0.0102042 -0.00153504 0.5
0.0624445 0.0102042 0.00153504 0.5
0.0624445 0.0102042 0.0025 0.5
0.0624445 0.0102042 -0.0025 0.5
0.0624797 0.00999 0.0025 0.5
0.0624797 0.00999 -0.0025 0.5
0.0624671 0.010545 2.8121e-19 0.5
0.0633413 0.000587972 -0.0025 0.5
0.0633413 0.000587972 0.0025 0.5
0.0624889 0.0108413 -0.00133488 0.5
0.0624889 0.0108413 0.00133488 0.5
0.0624889 0.0108413 0.0025 0.5
0.0624889 0.0108413 -0.0025 0.5
0.0625693 0.0111 0.0025 0.5
0.0625693 0.0111 -0.0025 0.5
0.0625564 0.011426 0.0025 0.5
0.0625564 0.011426 -0.0025 0.5
0.0625741 0.0116434 -5.81562e-19 0.5
0.0636191 0.0002775 0.0025 0.5
0.0636191 0.0002775 -0.0025 0.5
0.0625913 0.0118491 0.0025 0.5
0.0625913 0.0118491 -0.0025 0.5
0.0626635 0.01221 0.0025 0.5
0.0626635 0.01221 -0.0025 0.5
0.0638969 0.0002775 -5.95927e-22 0.5
0.0627199 0.0128 8.23942e-19 0.5
0.0627071 0.0126866 0.0025 0.5
0.0627071 0.0126866 -0.0025 0.5
0.0627211 0.0128295 0.0025 0.5
0.0627211 0.0128295 -0.0025 0.5
0.0627608 0.01332 0.0025 0.5
0.0627608 0.01332 -0.0025 0.5
0.0641747 0.0002775 0.0025 0.5
0.0641747 0.0002775 -0.0025 0.5
0.0628742 0.0138791 -4.94474e-20 0.5
0.0628683 0.0137924 0.0025 0.5
0.0628683 0.0137924 -0.0025 0.5
0.0628806 0.0139699 0.0025 0.5
0.0628806 0.0139699 -0.0025 0.5
0.0644525 0.000555 -0.0025 0.5
0.0644525 0.000555 0.0025 0.5
0.0628596 0.01443 0.0025 0.5
0.0628596 0.01443 -0.0025 0.5
0.0629894 0.0147814 0.0025 0.5
0.0629894 0.0147814 -0.0025 0.5
0.0630029 0.0149942 -2.71504e-20 0.5
0.0647303 0.0002775 0.0025 0.5
0.0647303 0.0002775 -0.0025 0.5
0.0630171 0.0152162 0.0025 0.5
0.0630171 0.0152162 -0.0025 0.5
0.0629575 0.01554 0.0025 0.5
0.0629575 0.01554 -0.0025 0.5
0.0650081 0.0002775 0 0.5
0.0630871 0.0157939 0.00135627 0.5
0.0630871 0.0157939 -0.00135627 0.5
0.0630871 0.0157939 0.0025 0.5
0.0630871 0.0157939 -0.0025 0.5
0.0631042 0.016095 7.64456e-20 0.5
0.0631233 0.0164323 -0.0015195 0.5
0.0631233 0.0164323 0.0015195 0.5
0.0630515 0.01665 0.0025 0.5
0.0630515 0.01665 -0.0025 0.5
0.0631233 0.0164323 0.0025 0.5
0.0631233 0.0164323 -0.0025 0.5
0.0652859 0.0002775 0.0025 0.5
0.0652859 0.0002775 -0.0025 0.5
0.0631655 0.0168256 0.00170903 0.5
0.0631655 0.0168256 -0.00170903 0.5
0.0631655 0.0168256 0.0025 0.5
0.0631655 0.0168256 -0.0025 0.5
0.0631847 0.017205 0 0.5
0.0655638 0.000555 -0.0025 0.5
0.0655638 0.000555 0.0025 0.5
0.0631366 0.01776 0.0025 0.5
0.0631366 0.01776 -0.0025 0.5
0.0632038 0.0176227 -0.00188175 0.5
0.0632038 0.0176227 0.00188175 0.5
0.0632038 0.0176227 0.0025 0.5
0.0632038 0.0176227 -0.0025 0.5
0.0632259 0.0178752 0.00198108 0.5
0.0632259 0.0178752 -0.00198108 0.5
0.0632259 0.0178752 0.0025 0.5
0.0632259 0.0178752 -0.0025 0.5
0.0632443 0.018315 6.93647e-19 0.5
0.0658416 0.0002775 0.0025 0.5
0.0658416 0.0002775 -0.0025 0.5
0.0632795 0.01887 0.0025 0.5
0.0632795 0.01887 -0.0025 0.5
0.0633033 0.0188321 0.00232909 0.5
0.0633033 0.0188321 -0.00232909 0.5
0.0633033 0.0188321 0.0025 0.5
0.0633033 0.0188321 -0.0025 0.5
0.0633077 0.0189035 0.00234901 0.5
0.0633077 0.0189035 -0.00234901 0.5
0.0633077 0.0189035 0.0025 0.5
0.0633077 0.0189035 -0.0025 0.5
0.0661194 0.0002775 -1.81913e-21 0.5
0.0633413 0.0191859 -0.0025 0.5
0.0633413 0.0191859 0.0025 0.5
0.0633745 0.019425 -1.42855e-18 0.5
0.0663972 0.0002775 0.0025 0.5
0.0663972 0.0002775 -0.0025 0.5
0.0634269 0.0198945 -0.00211474 0.5
0.0634269 0.0198945 0.00211474 0.5
0.0634269 0.0198945 0.0025 0.5
0.0634269 0.0198945 -0.0025 0.5
0.0634649 0.0201035 -0.00194383 0.5
0.0634649 0.0201035 0.00194383 0.5
0.0634977 0.01998 0.0025 0.5
0.0634977 0.01998 -0.0025 0.5
0.0634649 0.0201035 0.0025 0.5
0.0634649 0.0201035 -0.0025 0.5
0.066675 0.000555 -0.0025 0.5
0.066675 0.000555 0.0025 0.5
0.0635195 0.020535 5.691e-19 0.5
0.0635593 0.0208722 -0.00151893 0.5
0.0635593 0.0208722 0.00151893 0.5
0.0635593 0.0208722 0.0025 0.5
0.0635593 0.0208722 -0.0025 0.5
0.0669528 0.0002775 0.0025 0.5
0.0669528 0.0002775 -0.0025 0.5
0.0636816 0.02109 0.0025 0.5
0.0636816 0.02109 -0.0025 0.5
0.0636716 0.02142 0.0025 0.5
0.0636716 0.02142 -0.0025 0.5
0.0672306 0.0002775 9.10876e-20 0.5
0.0636996 0.0216274 1.88241e-20 0.5
0.0637244 0.0218173 0.0025 0.5
0.0637244 0.0218173 -0.0025 0.5
0.0675084 0.0002775 0.0025 0.5
0.0675084 0.0002775 -0.0025 0.5
0.0638435 0.0222 0.0025 0.5
0.0638435 0.0222 -0.0025 0.5
0.0677863 0.000555 -0.0025 0.5
0.0677863 0.000555 0.0025 0.5
0.0639438 0.0227379 -1.1587e-18 0.5
0.0639422 0.0227098 -0.0025 0.5
0.0639422 0.0227098 0.0025 0.5
0.0639542 0.0228123 0.0025 0.5
0.0639542 0.0228123 -0.0025 0.5
0.0680641 0.0002775 0.0025 0.5
0.0680641 0.0002775 -0.0025 0.5
0.0639897 0.02331 0.0025 0.5
0.0639897 0.02331 -0.0025 0.5
0.0683419 0.0002775 1.14121e-19 0.5
0.0641269 0.0236352 0.0025 0.5
0.0641269 0.0236352 -0.0025 0.5
0.0641497 0.0238805 1.70523e-19 0.5
0.0641733 0.0241411 0.0025 0.5
0.0641733 0.0241411 -0.0025 0.5
0.0641236 0.02442 0.0025 0.5
0.0641236 0.02442 -0.0025 0.5
0.0686197 0.0002775 0.0025 0.5
0.0686197 0.0002775 -0.0025 0.5
0.0642517 0.0246206 0.00159651 0.5
0.0642517 0.0246206 -0.00159651 0.5
0.0642517 0.0246206 0.0025 0.5
0.0642517 0.0246206 -0.0025 0.5
0.0688975 0.000555 -0.0025 0.5
0.0688975 0.000555 0.0025 0.5
0.0642785 0.024975 1.47113e-18 0.5
0.0643055 0.0253832 -0.00183869 0.5
0.0643055 0.0253832 0.00183869 0.5
0.0642435 0.02553 0.0025 0.5
0.0642435 0.02553 -0.0025 0.5
0.0643055 0.0253832 0.0025 0.5
0.0643055 0.0253832 -0.0025 0.5
0.0691753 0.0002775 0.0025 0.5
0.0691753 0.0002775 -0.0025 0.5
0.064338 0.0256444 0.00198474 0.5
0.064338 0.0256444 -0.00198474 0.5
0.064338 0.0256444 0.0025 0.5
0.064338 0.0256444 -0.0025 0.5
0.0643638 0.026085 -9.40441e-19 0.5
0.0694531 0.0002775 9.36031e-20 0.5
0.0643497 0.02664 0.0025 0.5
0.0643497 0.02664 -0.0025 0.5
0.06439 0.0265776 0.00221875 0.5
0.06439 0.0265776 -0.00221875 0.5
0.06439 0.0265776 0.0025 0.5
0.06439 0.0265776 -0.0025 0.5
0.0644001 0.0266924 0.00226402 0.5
0.0644001 0.0266924 -0.00226402 0.5
0.0644001 0.0266924 0.0025 0.5
0.0644001 0.0266924 -0.0025 0.5
0.0697309 0.0002775 0.0025 0.5
0.0697309 0.0002775 -0.0025 0.5
0.0644249 0.027195 5.76688e-19 0.5
0.0644525 0.0272886 -0.0025 0.5
0.0644525 0.0272886 0.0025 0.5
0.0700088 0.000555 -0.0025 0.5
0.0700088 0.000555 0.0025 0.5
0.0644875 0.0277151 -0.00234273 0.5
0.0644875 0.0277151 0.00234273 0.5
0.0644875 0.0277151 0.0025 0.5
0.0644875 0.0277151 -0.0025 0.5
0.0645063 0.0278038 -0.00225785 0.5
0.0645063 0.0278038 0.00225785 0.5
0.0645281 0.02775 0.0025 0.5
0.0645281 0.02775 -0.0025 0.5
0.0645063 0.0278038 0.0025 0.5
0.0645063 0.0278038 -0.0025 0.5
0.0702866 0.0002775 0.0025 0.5
0.0702866 0.0002775 -0.0025 0.5
0.0645774 0.028305 -6.72354e-19 0.5
0.0705644 0.0002775 2.66209e-19 0.5
0.0646176 0.0286951 0.001757 0.5
0.0646176 0.0286951 -0.001757 0.5
0.0646176 0.0286951 -0.0025 0.5
0.0646176 0.0286951 0.0025 0.5
0.0708422 0.0002775 0.0025 0.5
0.0708422 0.0002775 -0.0025 0.5
0.0647419 0.02886 0.0025 0.5
0.0647419 0.02886 -0.0025 0.5
0.0647017 0.0291089 -0.00137862 0.5
0.0647017 0.0291089 0.00137862 0.5
0.0647017 0.0291089 0.0025 0.5
0.0647017 0.0291089 -0.0025 0.5
0.07112 0.000555 -0.0025 0.5
0.07112 0.000555 0.0025 0.5
0.0647566 0.0295769 -1.20261e-18 0.5
0.0647651 0.0296578 0.0025 0.5
0.0647651 0.0296578 -0.0025 0.5
0.0713978 0.0002775 0.0025 0.5
0.0713978 0.0002775 -0.0025 0.5
0.0649058 0.02997 0.0025 0.5
0.0649058 0.02997 -0.0025 0.5
0.0716756 0.0002775 9.36031e-20 0.5
0.0649606 0.0305419 1.00842e-18 0.5
0.0649494 0.0304664 0.0025 0.5
0.0649494 0.0304664 -0.0025 0.5
0.0649625 0.0305706 0.0025 0.5
0.0649625 0.0305706 -0.0025 0.5
0.0719534 0.0002775 0.0025 0.5
0.0719534 0.0002775 -0.0025 0.5
0.0650503 0.03108 0.0025 0.5
0.0650503 0.03108 -0.0025 0.5
0.0722313 0.000555 -0.0025 0.5
0.0722313 0.000555 0.0025 0.5
0.0651759 0.0314674 0.0025 0.5
0.0651759 0.0314674 -0.0025 0.5
0.0651969 0.0316502 8.71531e-23 0.5
0.0725091 0.0002775 0.0025 0.5
0.0725091 0.0002775 -0.0025 0.5
0.0652215 0.0318481 0.0025 0.5
0.0652215 0.0318481 -0.0025 0.5
0.0652075 0.03219 0.0025 0.5
0.0652075 0.03219 -0.0025 0.5
0.0727869 0.0002775 1.145e-19 0.5
0.0653512 0.0324023 0.00154382 0.5
0.0653512 0.0324023 -0.00154382 0.5
0.0653512 0.0324023 0.0025 0.5
0.0653512 0.0324023 -0.0025 0.5
0.0730647 0.0002775 0.0025 0.5
0.0730647 0.0002775 -0.0025 0.5
0.0653872 0.032745 -4.07944e-21 0.5
0.0654125 0.033149 -0.00181961 0.5
0.0654125 0.033149 0.00181961 0.5
0.0654125 0.033149 0.0025 0.5
0.0654125 0.033149 -0.0025 0.5
0.0653487 0.0333 0.0025 0.5
0.0653487 0.0333 -0.0025 0.5
0.0733425 0.000555 -0.0025 0.5
0.0733425 0.000555 0.0025 0.5
0.0654445 0.0334191 0.0019633 0.5
0.0654445 0.0334191 -0.0019633 0.5
0.0654445 0.0334191 0.0025 0.5
0.0654445 0.0334191 -0.0025 0.5
0.0736203 0.0002775 0.0025 0.5
0.0736203 0.0002775 -0.0025 0.5
0.0654688 0.033855 2.05958e-20 0.5
0.0738981 0.0002775 1.12679e-19 0.5
0.0654845 0.0343309 -0.00214348 0.5
0.0654845 0.0343309 0.00214348 0.5
0.0654329 0.03441 0.0025 0.5
0.0654329 0.03441 -0.0025 0.5
0.0654845 0.0343309 0.0025 0.5
0.0654845 0.0343309 -0.0025 0.5
0.065494 0.0344796 0.0021863 0.5
0.065494 0.0344796 -0.0021863 0.5
0.065494 0.0344796 0.0025 0.5
0.065494 0.0344796 -0.0025 0.5
0.0741759 0.0002775 0.0025 0.5
0.0741759 0.0002775 -0.0025 0.5
0.0655091 0.034965 0 0.5
0.0744538 0.000555 -0.0025 0.5
0.0744538 0.000555 0.0025 0.5
0.0654923 0.03552 0.0025 0.5
0.0654923 0.03552 -0.0025 0.5
0.0655234 0.0354797 -0.00231845 0.5
0.0655234 0.0354797 0.00231845 0.5
0.0655234 0.0354797 0.0025 0.5
0.0655234 0.0354797 -0.0025 0.5
0.0655275 0.0355562 0.00233709 0.5
0.0655275 0.0355562 -0.00233709 0.5
0.0655275 0.0355562 0.0025 0.5
0.0655275 0.0355562 -0.0025 0.5
0.0747316 0.0002775 0.0025 0.5
0.0747316 0.0002775 -0.0025 0.5
0.0655412 0.036075 -1.22152e-18 0.5
0.0750094 0.0002775 1.14375e-19 0.5
0.0655559 0.03663 0.0025 0.5
0.0655559 0.03663 -0.0025 0.5
0.0655596 0.0366259 0.00248139 0.5
0.0655596 0.0366259 -0.00248139 0.5
0.0655596 0.0366259 0.0025 0.5
0.0655596 0.0366259 -0.0025 0.5
0.0655599 0.0366339 0.00248258 0.5
0.0655599 0.0366339 -0.00248258 0.5
0.0655599 0.0366339 0.0025 0.5
0.0655599 0.0366339 -0.0025 0.5
0.0655638 0.0367112 0.0025 0.5
0.0655638 0.0367112 -0.0025 0.5
0.0752872 0.0002775 0.0025 0.5
0.0752872 0.0002775 -0.0025 0.5
0.0655783 0.037185 1.84295e-20 0.5
0.075565 0.000555 -0.0025 0.5
0.075565 0.000555 0.0025 0.5
0.0656113 0.0376925 -0.00228598 0.5
0.0656113 0.0376925 0.00228598 0.5
0.0656113 0.0376925 -0.0025 0.5
0.0656113 0.0376925 0.0025 0.5
0.0656256 0.0378017 0.00222185 0.5
0.0656256 0.0378017 -0.00222185 0.5
0.0656256 0.0378017 0.0025 0.5
0.0656256 0.0378017 -0.0025 0.5
0.0656614 0.03774 0.0025 0.5
0.0656614 0.03774 -0.0025 0.5
0.0758428 0.0002775 0.0025 0.5
0.0758428 0.0002775 -0.0025 0.5
0.0656619 0.038295 1.35568e-18 0.5
0.0761206 0.0002775 1.14623e-19 0.5
0.0656837 0.0387302 -0.00196024 0.5
0.0656837 0.0387302 0.00196024 0.5
0.0656837 0.0387302 0.0025 0.5
0.0656837 0.0387302 -0.0025 0.5
0.065712 0.0389981 -0.00183285 0.5
0.065712 0.0389981 0.00183285 0.5
0.0657779 0.03885 0.0025 0.5
0.0657779 0.03885 -0.0025 0.5
0.0763984 0.0002775 0.0025 0.5
0.0763984 0.0002775 -0.0025 0.5
0.065712 0.0389981 0.0025 0.5
0.065712 0.0389981 -0.0025 0.5
0.0657347 0.039405 6.07689e-21 0.5
0.0766763 0.000555 -0.0025 0.5
0.0766763 0.000555 0.0025 0.5
0.0657504 0.0397735 -0.00166001 0.5
0.0657504 0.0397735 0.00166001 0.5
0.0657504 0.0397735 0.0025 0.5
0.0657504 0.0397735 -0.0025 0.5
0.0769541 0.0002775 0.0025 0.5
0.0769541 0.0002775 -0.0025 0.5
0.0658614 0.03996 0.0025 0.5
0.0658614 0.03996 -0.0025 0.5
0.0657869 0.0401829 -0.00149587 0.5
0.0657869 0.0401829 0.00149587 0.5
0.0657869 0.0401829 0.0025 0.5
0.0657869 0.0401829 -0.0025 0.5
0.0772319 0.0002775 1.08196e-19 0.5
0.0658024 0.040515 -1.41714e-20 0.5
0.0658133 0.0408207 -0.00137707 0.5
0.0658133 0.0408207 0.00137707 0.5
0.0658133 0.0408207 0.0025 0.5
0.0658133 0.0408207 -0.0025 0.5
0.0775097 0.0002775 0.0025 0.5
0.0775097 0.0002775 -0.0025 0.5
0.0659254 0.04107 0.0025 0.5
0.0659254 0.04107 -0.0025 0.5
0.0658532 0.0413591 0.0025 0.5
0.0658532 0.0413591 -0.0025 0.5
0.0777875 0.000555 -0.0025 0.5
0.0777875 0.000555 0.0025 0.5
0.0658624 0.0416192 6.9405e-21 0.5
0.0658705 0.0418736 0.0025 0.5
0.0658705 0.0418736 -0.0025 0.5
0.0780653 0.0002775 0.0025 0.5
0.0780653 0.0002775 -0.0025 0.5
0.0783431 0.0002775 8.26565e-20 0.5
0.0659737 0.04218 0.0025 0.5
0.0659737 0.04218 -0.0025 0.5
0.0659087 0.0425246 0.0025 0.5
0.0659087 0.0425246 -0.0025 0.5
0.0659143 0.0427315 -3.37906e-21 0.5
0.0786209 0.0002775 0.0025 0.5
0.0786209 0.0002775 -0.0025 0.5
0.0659192 0.042935 0.0025 0.5
0.0659192 0.042935 -0.0025 0.5
0.0788988 0.000555 -0.0025 0.5
0.0788988 0.000555 0.0025 0.5
0.0660082 0.04329 0.0025 0.5
0.0660082 0.04329 -0.0025 0.5
0.0659504 0.0436762 0.0025 0.5
0.0659504 0.0436762 -0.0025 0.5
0.0659534 0.0438432 -2.41531e-19 0.5
0.0791766 0.0002775 0.0025 0.5
0.0791766 0.0002775 -0.0025 0.5
0.0659559 0.0440083 0.0025 0.5
0.0659559 0.0440083 -0.0025 0.5
0.0794544 0.0002775 9.54222e-20 0.5
0.0660299 0.0444 0.0025 0.5
0.0660299 0.0444 -0.0025 0.5
0.0797322 0.0002775 0.0025 0.5
0.0797322 0.0002775 -0.0025 0.5
0.065975 0.0448108 0.0025 0.5
0.065975 0.0448108 -0.0025 0.5
0.0659765 0.0449541 -2.13805e-18 0.5
0.0659777 0.0450966 0.0025 0.5
0.0659777 0.0450966 -0.0025 0.5
0.08001 0.000555 -0.0025 0.5
0.08001 0.000555 0.0025 0.5
0.0660416 0.04551 -0.0025 0.5
0.0660416 0.04551 0.0025 0.5
0.0802878 0.0002775 0.0025 0.5
0.0802878 0.0002775 -0.0025 0.5
0.0659884 0.0459342 -0.0025 0.5
0.0659884 0.0459342 0.0025 0.5
0.065989 0.0460647 2.22755e-18 0.5
0.0805656 0.0002775 1.15842e-19 0.5
0.0659892 0.046195 -0.0025 0.5
0.0659892 0.046195 0.0025 0.5
0.0660453 0.04662 0.0025 0.5
0.0660453 0.04662 -0.0025 0.5
0.0808434 0.0002775 0.0025 0.5
0.0808434 0.0002775 -0.0025 0.5
0.0659882 0.047044 0.0025 0.5
0.0659882 0.047044 -0.0025 0.5
0.0659877 0.0471755 3.8663e-20 0.5
0.0811213 0.000555 -0.0025 0.5
0.0811213 0.000555 0.0025 0.5
0.0659868 0.0473074 0.0025 0.5
0.0659868 0.0473074 -0.0025 0.5
0.0813991 0.0002775 0.0025 0.5
0.0813991 0.0002775 -0.0025 0.5
0.0660385 0.04773 -0.0025 0.5
0.0660385 0.04773 0.0025 0.5
0.0816769 0.0002775 9.5745e-20 0.5
0.0659699 0.0481357 0.0025 0.5
0.0659699 0.0481357 -0.0025 0.5
0.0659679 0.0482865 -3.26152e-20 0.5
0.0659654 0.0484388 0.0025 0.5
0.0659654 0.0484388 -0.0025 0.5
0.0819547 0.0002775 0.0025 0.5
0.0819547 0.0002775 -0.0025 0.5
0.0660198 0.04884 0.0025 0.5
0.0660198 0.04884 -0.0025 0.5
0.0822325 0.000555 -0.0025 0.5
0.0822325 0.000555 0.0025 0.5
0.0659366 0.0492124 0.0025 0.5
0.0659366 0.0492124 -0.0025 0.5
0.0659326 0.0493978 -5.07635e-20 0.5
0.0659281 0.049586 -0.0025 0.5
0.0659281 0.049586 0.0025 0.5
0.0825103 0.0002775 0.0025 0.5
0.0825103 0.0002775 -0.0025 0.5
0.0827881 0.0002775 8.32524e-20 0.5
0.0659898 0.04995 0.0025 0.5
0.0659898 0.04995 -0.0025 0.5
0.0658923 0.0502782 0.0025 0.5
0.0658923 0.0502782 -0.0025 0.5
0.0658858 0.0505096 -1.30676e-19 0.5
0.0830659 0.0002775 0.0025 0.5
0.0830659 0.0002775 -0.0025 0.5
0.0658786 0.0507455 0.0025 0.5
0.0658786 0.0507455 -0.0025 0.5
0.0833437 0.000555 -0.0025 0.5
0.0833437 0.000555 0.0025 0.5
0.0659488 0.05106 0.0025 0.5
0.0659488 0.05106 -0.0025 0.5
0.0658406 0.0513365 -0.0012543 0.5
0.0658406 0.0513365 0.0012543 0.5
0.0658406 0.0513365 0.0025 0.5
0.0658406 0.0513365 -0.0025 0.5
0.0658319 0.051615 -2.09131e-18 0.5
0.0836216 0.0002775 0.0025 0.5
0.0836216 0.0002775 -0.0025 0.5
0.0658205 0.0519135 0.00134459 0.5
0.0658205 0.0519135 -0.00134459 0.5
0.0658205 0.0519135 -0.0025 0.5
0.0658205 0.0519135 0.0025 0.5
0.0838994 0.0002775 3.228e-22 0.5
0.0658969 0.05217 -0.0025 0.5
0.0658969 0.05217 0.0025 0.5
0.0657854 0.0523914 -0.00150275 0.5
0.0657854 0.0523914 0.00150275 0.5
0.0657854 0.0523914 -0.0025 0.5
0.0657854 0.0523914 0.0025 0.5
0.0841772 0.0002775 0.0025 0.5
0.0841772 0.0002775 -0.0025 0.5
0.0657736 0.052725 2.53836e-18 0.5
0.084455 0.000555 -0.0025 0.5
0.084455 0.000555 0.0025 0.5
0.0657587 0.0530853 -0.00162295 0.5
0.0657587 0.0530853 0.00162295 0.5
0.0657587 0.0530853 0.0025 0.5
0.0657587 0.0530853 -0.0025 0.5
0.0658351 0.05328 0.0025 0.5
0.0658351 0.05328 -0.0025 0.5
0.0657301 0.0534461 -0.00175173 0.5
0.0657301 0.0534461 0.00175173 0.5
0.0657301 0.0534461 0.0025 0.5
0.0657301 0.0534461 -0.0025 0.5
0.0847328 0.0002775 0.0025 0.5
0.0847328 0.0002775 -0.0025 0.5
0.0657152 0.053835 -5.3383e-18 0.5
0.0850106 0.0002775 0 0.5
0.0656971 0.0542568 0.00189985 0.5
0.0656971 0.0542568 -0.00189985 0.5
0.0656971 0.0542568 0.0025 0.5
0.0656971 0.0542568 -0.0025 0.5
0.0852884 0.0002775 0.0025 0.5
0.0852884 0.0002775 -0.0025 0.5
0.0656769 0.054503 0.00199096 0.5
0.0656769 0.054503 -0.00199096 0.5
0.0657644 0.05439 0.0025 0.5
0.0657644 0.05439 -0.0025 0.5
0.0656769 0.054503 0.0025 0.5
0.0656769 0.054503 -0.0025 0.5
0.0855663 0.000555 -0.0025 0.5
0.0855663 0.000555 0.0025 0.5
0.0656594 0.054945 5.59278e-18 0.5
0.0858441 0.0002775 0.0025 0.5
0.0858441 0.0002775 -0.0025 0.5
0.0656372 0.0554266 -0.00216952 0.5
0.0656372 0.0554266 0.00216952 0.5
0.0656372 0.0554266 -0.0025 0.5
0.0656372 0.0554266 0.0025 0.5
0.0656256 0.0555618 -0.00222165 0.5
0.0656256 0.0555618 0.00222165 0.5
0.0656256 0.0555618 -0.0025 0.5
0.0656256 0.0555618 0.0025 0.5
0.0656834 0.0555 -0.0025 0.5
0.0656834 0.0555 0.0025 0.5
0.0861219 0.0002775 0 0.5
0.0656047 0.056055 -2.76942e-18 0.5
0.0863997 0.0002775 0.0025 0.5
0.0863997 0.0002775 -0.0025 0.5
0.0655806 0.0565932 -0.00242425 0.5
0.0655806 0.0565932 0.00242425 0.5
0.0655806 0.0565932 0.0025 0.5
0.0655806 0.0565932 -0.0025 0.5
0.0655783 0.0566245 -0.00243468 0.5
0.0655783 0.0566245 0.00243468 0.5
0.0655783 0.0566245 0.0025 0.5
0.0655783 0.0566245 -0.0025 0.5
0.0655938 0.05661 0.0025 0.5
0.0655938 0.05661 -0.0025 0.5
0.0866775 0.000555 -0.0025 0.5
0.0866775 0.000555 0.0025 0.5
0.0655555 0.057165 1.22915e-18 0.5
0.0869553 0.0002775 0.0025 0.5
0.0869553 0.0002775 -0.0025 0.5
0.0655638 0.0571651 -0.0025 0.5
0.0655638 0.0571651 0.0025 0.5
0.0872331 0.0002775 0 0.5
0.0655488 0.0577051 0.0024328 0.5
0.0655488 0.0577051 -0.0024328 0.5
0.065534 0.05772 0.0025 0.5
0.065534 0.05772 -0.0025 0.5
0.0655488 0.0577051 0.0025 0.5
0.0655488 0.0577051 -0.0025 0.5
0.065548 0.0577357 0.00242934 0.5
0.065548 0.0577357 -0.00242934 0.5
0.065548 0.0577357 0.0025 0.5
0.065548 0.0577357 -0.0025 0.5
0.0875109 0.0002775 0.0025 0.5
0.0875109 0.0002775 -0.0025 0.5
0.0655412 0.058275 1.68453e-19 0.5
0.0877888 0.000555 -0.0025 0.5
0.0877888 0.000555 0.0025 0.5
0.0880666 0.0002775 -0.00125 0.5
0.0880666 0.0002775 0.00125 0.5
0.065533 0.0587993 -0.00236183 0.5
0.065533 0.0587993 0.00236183 0.5
0.0655038 0.05883 0.0025 0.5
0.0655038 0.05883 -0.0025 0.5
0.065533 0.0587993 -0.0025 0.5
0.065533 0.0587993 0.0025 0.5
0.0880666 0.0002775 0.0025 0.5
0.0880666 0.0002775 -0.0025 0.5
0.065531 0.0588627 0.00235285 0.5
0.065531 0.0588627 -0.00235285 0.5
0.065531 0.0588627 0.0025 0.5
0.065531 0.0588627 -0.0025 0.5
0.0883444 0.0002775 0 0.5
0.0883444 0.00111 0.0025 0.5
0.0883444 0.00111 -0.0025 0.5
0.0883444 0.00222 0.0025 0.5
0.0883444 0.00222 -0.0025 0.5
0.0655227 0.059385 -1.65804e-18 0.5
0.0883444 0.00333 0.0025 0.5
0.0883444 0.00333 -0.0025 0.5
0.0883444 0.00444 0.0025 0.5
0.0883444 0.00444 -0.0025 0.5
0.0883444 0.00555 0.0025 0.5
0.0883444 0.00555 -0.0025 0.5
0.0886222 0.000555 0 0.5
0.0883444 0.00666 0.0025 0.5
0.0883444 0.00666 -0.0025 0.5
0.0886222 0.0002775 -0.00125 0.5
0.0886222 0.0002775 0.00125 0.5
0.0886222 0.0008325 0.00125 0.5
0.0886222 0.0008325 -0.00125 0.5
0.0886222 0.001665 0 0.5
0.0886222 0.0002775 0.0025 0.5
0.0886222 0.0002775 -0.0025 0.5
0.0886222 0.0008325 0.0025 0.5
0.0886222 0.0008325 -0.0025 0.5
0.0886222 0.002775 0 0.5
0.0886222 0.0013875 0.0025 0.5
0.0886222 0.0013875 -0.0025 0.5
0.0886222 0.0019425 0.0025 0.5
0.0886222 0.0019425 -0.0025 0.5
0.0886222 0.0024975 0.0025 0.5
0.0886222 0.0024975 -0.0025 0.5
0.0886222 0.003885 0 0.5
0.0886222 0.0030525 0.0025 0.5
0.0886222 0.0030525 -0.0025 0.5
0.0883444 0.00777 0.0025 0.5
0.0883444 0.00777 -0.0025 0.5
0.0886222 0.0036075 0.0025 0.5
0.0886222 0.0036075 -0.0025 0.5
0.0886222 0.0041625 0.0025 0.5
0.0886222 0.0041625 -0.0025 0.5
0.0886222 0.004995 -1.81603e-19 0.5
0.0886222 0.0047175 0.0025 0.5
0.0886222 0.0047175 -0.0025 0.5
0.0655144 0.0598907 -0.00227806 0.5
0.0655144 0.0598907 0.00227806 0.5
0.0655144 0.0598907 0.0025 0.5
0.0655144 0.0598907 -0.0025 0.5
0.0654704 0.05994 0.0025 0.5
0.0654704 0.05994 -0.0025 0.5
0.0886222 0.0052725 0.0025 0.5
0.0886222 0.0052725 -0.0025 0.5
0.0883444 0.00888 0.0025 0.5
0.0883444 0.00888 -0.0025 0.5
0.0886222 0.006105 -4.31797e-21 0.5
0.0886222 0.0058275 0.0025 0.5
0.0886222 0.0058275 -0.0025 0.5
0.065511 0.0599927 0.00226283 0.5
0.065511 0.0599927 -0.00226283 0.5
0.065511 0.0599927 0.0025 0.5
0.065511 0.0599927 -0.0025 0.5
0.0886222 0.0063825 0.0025 0.5
0.0886222 0.0063825 -0.0025 0.5
0.0886222 0.007215 3.76366e-21 0.5
0.0886222 0.0069375 -0.0025 0.5
0.0886222 0.0069375 0.0025 0.5
0.0883444 0.00999 0.0025 0.5
0.0883444 0.00999 -0.0025 0.5
0.0886222 0.0074925 -0.0025 0.5
0.0886222 0.0074925 0.0025 0.5
0.0886222 0.008325 1.10296e-21 0.5
0.0886222 0.0080475 -0.0025 0.5
0.0886222 0.0080475 0.0025 0.5
0.0886222 0.0086025 -0.0025 0.5
0.0886222 0.0086025 0.0025 0.5
0.0883444 0.0111 0.0025 0.5
0.0883444 0.0111 -0.0025 0.5
0.0886222 0.009435 1.92878e-21 0.5
0.0886222 0.0091575 0.0025 0.5
0.0886222 0.0091575 -0.0025 0.5
0.0655026 0.060495 2.89702e-19 0.5
0.0886222 0.0097125 0.0025 0.5
0.0886222 0.0097125 -0.0025 0.5
0.0883444 0.01221 0.0025 0.5
0.0883444 0.01221 -0.0025 0.5
0.0886222 0.010545 3.88923e-21 0.5
0.0886222 0.0102675 0.0025 0.5
0.0886222 0.0102675 -0.0025 0.5
0.0886222 0.0108225 0.0025 0.5
0.0886222 0.0108225 -0.0025 0.5
0.0883444 0.01332 0.0025 0.5
0.0883444 0.01332 -0.0025 0.5
0.0886222 0.0113775 0.0025 0.5
0.0886222 0.0113775 -0.0025 0.5
0.0886222 0.011655 2.78619e-21 0.5
0.0886222 0.0119325 0.0025 0.5
0.0886222 0.0119325 -0.0025 0.5
0.0654949 0.0609813 0.00219043 0.5
0.0654949 0.0609813 -0.00219043 0.5
0.0654949 0.0609813 0.0025 0.5
0.0654949 0.0609813 -0.0025 0.5
0.0654379 0.06105 -0.0025 0.5
0.0654379 0.06105 0.0025 0.5
0.0886222 0.0124875 -0.0025 0.5
0.0886222 0.0124875 0.0025 0.5
0.0886222 0.012765 1.81655e-19 0.5
0.0883444 0.01443 0.0025 0.5
0.0883444 0.01443 -0.0025 0.5
0.0654904 0.0611232 0.00217012 0.5
0.0654904 0.0611232 -0.00217012 0.5
0.0886222 0.0130425 -0.0025 0.5
0.0886222 0.0130425 0.0025 0.5
0.0654904 0.0611232 0.0025 0.5
0.0654904 0.0611232 -0.0025 0.5
0.0886222 0.0135975 0.0025 0.5
0.0886222 0.0135975 -0.0025 0.5
0.0886222 0.013875 0 0.5
0.0883444 0.01554 0.0025 0.5
0.0883444 0.01554 -0.0025 0.5
0.0886222 0.0141525 0.0025 0.5
0.0886222 0.0141525 -0.0025 0.5
0.0886222 0.0147075 -0.0025 0.5
0.0886222 0.0147075 0.0025 0.5
0.0886222 0.014985 7.52748e-21 0.5
0.0654827 0.061605 1.18082e-18 0.5
0.0883444 0.01665 0.0025 0.5
0.0883444 0.01665 -0.0025 0.5
0.0886222 0.0152625 -0.0025 0.5
0.0886222 0.0152625 0.0025 0.5
0.0886222 0.0158175 0.0025 0.5
0.0886222 0.0158175 -0.0025 0.5
0.0886222 0.016095 0 0.5
0.0883444 0.01776 0.0025 0.5
0.0883444 0.01776 -0.0025 0.5
0.0886222 0.0163725 0.0025 0.5
0.0886222 0.0163725 -0.0025 0.5
0.0654763 0.0620726 0.00210652 0.5
0.0654763 0.0620726 -0.00210652 0.5
0.0654763 0.0620726 0.0025 0.5
0.0654763 0.0620726 -0.0025 0.5
0.0886222 0.0169275 0.0025 0.5
0.0886222 0.0169275 -0.0025 0.5
0.0654091 0.06216 0.0025 0.5
0.0654091 0.06216 -0.0025 0.5
0.0886222 0.017205 0 0.5
0.0886222 0.0174825 0.0025 0.5
0.0886222 0.0174825 -0.0025 0.5
0.0654714 0.0622523 0.00208427 0.5
0.0654714 0.0622523 -0.00208427 0.5
0.0883444 0.01887 0.0025 0.5
0.0883444 0.01887 -0.0025 0.5
0.0654714 0.0622523 0.0025 0.5
0.0654714 0.0622523 -0.0025 0.5
0.0886222 0.0180375 0.0025 0.5
0.0886222 0.0180375 -0.0025 0.5
0.0886222 0.018315 -4.24739e-19 0.5
0.0886222 0.0185925 0.0025 0.5
0.0886222 0.0185925 -0.0025 0.5
0.0883444 0.01998 0.0025 0.5
0.0883444 0.01998 -0.0025 0.5
0.0654649 0.062715 9.67819e-20 0.5
0.0886222 0.0191475 0.0025 0.5
0.0886222 0.0191475 -0.0025 0.5
0.0886222 0.019425 2.54579e-19 0.5
0.0886222 0.0197025 0.0025 0.5
0.0886222 0.0197025 -0.0025 0.5
0.0883444 0.02109 0.0025 0.5
0.0883444 0.02109 -0.0025 0.5
0.0886222 0.0202575 0.0025 0.5
0.0886222 0.0202575 -0.0025 0.5
0.0886222 0.020535 -4.2863e-21 0.5
0.0654603 0.0631667 -0.00203453 0.5
0.0654603 0.0631667 0.00203453 0.5
0.0654603 0.0631667 0.0025 0.5
0.0654603 0.0631667 -0.0025 0.5
0.0653863 0.06327 0.0025 0.5
0.0653863 0.06327 -0.0025 0.5
0.0886222 0.0208125 0.0025 0.5
0.0886222 0.0208125 -0.0025 0.5
0.0883444 0.0222 0.0025 0.5
0.0883444 0.0222 -0.0025 0.5
0.065456 0.0633777 0.00201501 0.5
0.065456 0.0633777 -0.00201501 0.5
0.065456 0.0633777 0.0025 0.5
0.065456 0.0633777 -0.0025 0.5
0.0886222 0.0213675 0.0025 0.5
0.0886222 0.0213675 -0.0025 0.5
0.0886222 0.021645 -2.44648e-21 0.5
0.0886222 0.0219225 0.0025 0.5
0.0886222 0.0219225 -0.0025 0.5
0.0883444 0.02331 0.0025 0.5
0.0883444 0.02331 -0.0025 0.5
0.0654513 0.063825 0 0.5
0.0886222 0.0224775 0.0025 0.5
0.0886222 0.0224775 -0.0025 0.5
0.0886222 0.022755 -2.49561e-19 0.5
0.0886222 0.0230325 0.0025 0.5
0.0886222 0.0230325 -0.0025 0.5
0.0883444 0.02442 0.0025 0.5
0.0883444 0.02442 -0.0025 0.5
0.0886222 0.0235875 0.0025 0.5
0.0886222 0.0235875 -0.0025 0.5
0.0654486 0.064265 -0.00198207 0.5
0.0654486 0.064265 0.00198207 0.5
0.0654486 0.064265 0.0025 0.5
0.0654486 0.064265 -0.0025 0.5
0.0886222 0.023865 4.33092e-19 0.5
0.0653711 0.06438 0.0025 0.5
0.0653711 0.06438 -0.0025 0.5
0.0886222 0.0241425 0.0025 0.5
0.0886222 0.0241425 -0.0025 0.5
0.0654458 0.0644978 -0.00196925 0.5
0.0654458 0.0644978 0.00196925 0.5
0.0654458 0.0644978 0.0025 0.5
0.0654458 0.0644978 -0.0025 0.5
0.0883444 0.02553 0.0025 0.5
0.0883444 0.02553 -0.0025 0.5
0.0886222 0.0246975 -0.0025 0.5
0.0886222 0.0246975 0.0025 0.5
0.0886222 0.024975 1.19177e-21 0.5
0.0886222 0.0252525 0.0025 0.5
0.0886222 0.0252525 -0.0025 0.5
0.0654431 0.064935 -1.94472e-20 0.5
0.0883444 0.02664 0.0025 0.5
0.0883444 0.02664 -0.0025 0.5
0.0886222 0.0258075 0.0025 0.5
0.0886222 0.0258075 -0.0025 0.5
0.0886222 0.026085 9.22105e-21 0.5
0.0886222 0.0263625 0.0025 0.5
0.0886222 0.0263625 -0.0025 0.5
0.0654498 0.0653762 -0.00198733 0.5
0.0654498 0.0653762 0.00198733 0.5
0.0654498 0.0653762 0.0025 0.5
0.0654498 0.0653762 -0.0025 0.5
0.0653794 0.06549 0.0025 0.5
0.0653794 0.06549 -0.0025 0.5
0.0883444 0.02775 0.0025 0.5
0.0883444 0.02775 -0.0025 0.5
0.0886222 0.0269175 0.0025 0.5
0.0886222 0.0269175 -0.0025 0.5
0.0654564 0.0655972 0.00201711 0.5
0.0654564 0.0655972 -0.00201711 0.5
0.0886222 0.027195 1.2044e-20 0.5
0.0654564 0.0655972 0.0025 0.5
0.0654564 0.0655972 -0.0025 0.5
0.0655638 0.065648 -0.0025 0.5
0.0655638 0.065648 0.0025 0.5
0.0886222 0.0274725 0.0025 0.5
0.0886222 0.0274725 -0.0025 0.5
0.0883444 0.02886 0.0025 0.5