0 	0 	0 	0
0.000446734 	-1.5386e-05 	-6.18434e-05 	6.76344e-26
0.000893467 	-3.0772e-05 	-0.000123687 	1.35269e-25
0.0013402 	-5.20075e-05 	-0.000186582 	2.37303e-25
0.00178693 	-7.88074e-05 	-0.000250477 	3.72059e-25
0.00223367 	-0.000105616 	-0.000313989 	5.01764e-25
0.0026804 	-0.000132775 	-0.000362529 	4.34496e-25
0.00312714 	-0.000159934 	-0.00041107 	3.67228e-25
0.00357387 	-0.00018073 	-0.000443881 	2.27894e-25
0.0040206 	-0.000196049 	-0.000463158 	2.6549e-26
0.00446734 	-0.000210102 	-0.000480402 	-1.6641e-25
0.00491407 	-0.000200098 	-0.000459038 	-2.00042e-25
0.0053608 	-0.000190093 	-0.000437673 	-2.33674e-25
0.00580754 	-0.000157699 	-0.000388318 	-1.5542e-25
0.00625427 	-0.000107889 	-0.000317192 	9.85869e-27
0.00670101 	-5.39315e-05 	-0.000241859 	1.74896e-25
0.00714774 	5.11894e-05 	-0.000114634 	3.36963e-25
0.00759447 	0.00015631 	1.25908e-05 	4.99029e-25
0.00804121 	0.000302875 	0.000174123 	5.07902e-25
0.00848794 	0.000478538 	0.000359743 	4.09213e-25
0.00893467 	0.000662385 	0.000550751 	3.16942e-25
0.00938141 	0.000919883 	0.000790258 	2.82432e-25
0.00982814 	0.00117738 	0.00102976 	2.47923e-25
0.0102749 	0.0014864 	0.00129365 	3.5236e-25
0.0107216 	0.00182801 	0.00157295 	5.44703e-25
0.0111683 	0.00217893 	0.00185432 	6.97468e-25
0.0116151 	0.00259502 	0.00215021 	5.73191e-25
0.0120618 	0.0030111 	0.00244609 	4.48915e-25
0.0125085 	0.00346177 	0.00273475 	1.85339e-25
0.0129553 	0.0039321 	0.0030193 	-1.57446e-25
0.013402 	0.00440668 	0.00329816 	-4.69767e-25
0.0138487 	0.0049053 	0.00354485 	-6.09462e-25
0.0142955 	0.00540392 	0.00379153 	-7.49156e-25
0.0147422 	0.00590398 	0.00399979 	-6.91081e-25
0.0151889 	0.00640476 	0.00418846 	-5.32256e-25
0.0156357 	0.00690206 	0.00436498 	-3.31736e-25
0.0160824 	0.00738299 	0.00448422 	6.53452e-26
0.0165291 	0.00786392 	0.00460345 	4.62427e-25
0.0169759 	0.00832031 	0.00467292 	5.80752e-25
0.0174226 	0.00876556 	0.00471977 	5.72369e-25
0.0178693 	0.00920178 	0.00475289 	5.20182e-25
0.0183161 	0.0096019 	0.0047311 	2.9278e-25
0.0187628 	0.010002 	0.00470931 	6.53781e-26
0.0192095 	0.010367 	0.00464431 	0
0.0196563 	0.0107179 	0.00456187 	0
0.020103 	0.0110576 	0.00446806 	-6.8791e-26
0.0205497 	0.011359 	0.00433505 	-3.74529e-25
0.0209965 	0.0116603 	0.00420204 	-6.80267e-25
0.0214432 	0.0119266 	0.00403944 	-1.10659e-24
0.0218899 	0.0121804 	0.0038663 	-1.57583e-24
0.0223367 	0.012423 	0.00368557 	-1.90651e-24
0.0227834 	0.0126323 	0.00348207 	-1.8215e-24
0.0232302 	0.0128417 	0.00327858 	-1.73648e-24
0.0236769 	0.0130196 	0.00305847 	-1.1429e-24
0.0241236 	0.0131878 	0.00283318 	-3.90918e-25
0.0245704 	0.0133455 	0.00260387 	3.13023e-25
0.0250171 	0.0134756 	0.002364 	8.90298e-25
0.0254638 	0.0136057 	0.00212412 	1.46757e-24
0.0259106 	0.0137078 	0.00187744 	1.51372e-24
0.0263573 	0.0138022 	0.00162891 	1.41654e-24
0.026804 	0.0138865 	0.00137926 	1.29746e-24
0.0272508 	0.0139472 	0.00112699 	1.12727e-24
0.0276975 	0.0140078 	0.000874707 	9.57087e-25
0.0281442 	0.0140419 	0.000622711 	1.00039e-24
0.028591 	0.0140698 	0.00037078 	1.09295e-24
0.0290377 	0.0140873 	0.00012013 	1.073e-24
0.0294844 	0.0140829 	-0.000127862 	8.19339e-25
0.0299312 	0.0140786 	-0.000375854 	5.65681e-25
0.0303779 	0.014047 	-0.000617734 	-5.39738e-26
0.0308246 	0.0140101 	-0.000858429 	-7.44643e-25
0.0312714 	0.0139616 	-0.0010954 	-1.17002e-24
0.0317181 	0.0138917 	-0.00132546 	-1.10273e-24
0.0321648 	0.0138218 	-0.00155551 	-1.03543e-24
0.0326116 	0.0137227 	-0.00177342 	-3.43353e-25
0.0330583 	0.0136188 	-0.00198939 	4.48332e-25
0.033505 	0.013502 	-0.00219871 	9.96353e-25
0.0339518 	0.0133633 	-0.00239693 	1.13827e-24
0.0343985 	0.0132247 	-0.00259515 	1.28018e-24
0.0348452 	0.0130542 	-0.00277411 	8.4105e-25
0.035292 	0.0128798 	-0.00295063 	3.28264e-25
0.0357387 	0.0126907 	-0.00311677 	3.2398e-26
0.0361854 	0.0124797 	-0.00326733 	6.19118e-26
0.0366322 	0.0122687 	-0.00341789 	9.14256e-26
0.0370789 	0.0120239 	-0.00354054 	5.11803e-25
0.0375256 	0.0117758 	-0.00366052 	9.69661e-25
0.0379724 	0.0115117 	-0.00376541 	1.13589e-24
0.0384191 	0.0112262 	-0.00384987 	9.07555e-25
0.0388658 	0.0109406 	-0.00393434 	6.79222e-25
0.0393126 	0.0106201 	-0.00398077 	6.06503e-26
0.0397593 	0.0102972 	-0.00402467 	-5.83937e-25
0.040206 	0.00995812 	-0.00404822 	-9.65635e-25
0.0406528 	0.00959912 	-0.0040469 	-1.02602e-24
0.0410995 	0.00924012 	-0.00404558 	-1.08641e-24
0.0415462 	0.00884937 	-0.00399761 	-8.09814e-25
0.041993 	0.00845739 	-0.00394782 	-5.20087e-25
0.0424397 	0.00805279 	-0.00387477 	-3.24286e-25
0.0428864 	0.00763425 	-0.00377601 	-2.323e-25
0.0433332 	0.0072157 	-0.00367725 	-1.40314e-25
0.0437799 	0.00678146 	-0.00353368 	-1.08908e-25
0.0442266 	0.00634701 	-0.00338954 	-7.82701e-26
0.0446734 	0.00591207 	-0.0032269 	-5.02975e-26
0.0451201 	0.00547663 	-0.00304577 	-2.49906e-26
0.0455668 	0.0050414 	-0.00286433 	5.25142e-28
0.0460136 	0.0046226 	-0.00265888 	4.25365e-26
0.0464603 	0.00420381 	-0.00245343 	8.45478e-26
0.046907 	0.00380294 	-0.00224322 	1.51435e-25
0.0473538 	0.00341829 	-0.00202872 	2.4083e-25
0.0478005 	0.00303546 	-0.00181448 	3.25981e-25
0.0482472 	0.00269916 	-0.00160698 	3.02202e-25
0.048694 	0.00236285 	-0.00139948 	2.78423e-25
0.0491407 	0.00205806 	-0.00120497 	2.14805e-25
0.0495874 	0.00177906 	-0.00102108 	1.18592e-25
0.0500342 	0.00150388 	-0.000839864 	2.80625e-26
0.0504809 	0.00128599 	-0.000698578 	2.2805e-26
0.0509276 	0.0010681 	-0.000557292 	1.75476e-26
0.0513744 	0.000885061 	-0.000452541 	1.92342e-26
0.0518211 	0.00072779 	-0.000374794 	2.60534e-26
0.0522678 	0.000575313 	-0.000303619 	3.11406e-26
0.0527146 	0.000472824 	-0.000300996 	1.81654e-26
0.0531613 	0.000370335 	-0.000298373 	5.1901e-27
0.053608 	0.000292459 	-0.00032791 	0
0.0540548 	0.00023099 	-0.000378887 	0
0.0545015 	0.000172105 	-0.00042781 	0
0.0549482 	0.000133608 	-0.000460525 	0
0.055395 	9.51096e-05 	-0.00049324 	0
0.0558417 	6.56904e-05 	-0.000444872 	2.50486e-27
0.0562884 	4.17184e-05 	-0.000347854 	6.51265e-27
0.0567352 	1.99008e-05 	-0.000250243 	9.97231e-27
0.0571819 	1.15967e-05 	-0.000148909 	9.99377e-27
0.0576286 	3.29267e-06 	-4.75762e-05 	1.00152e-26
0.0580754 	3.77275e-07 	-8.95997e-06 	7.42128e-27
0.0585221 	3.63464e-07 	-4.11448e-06 	3.41904e-27
0.0589688 	3.59309e-07 	-5.66664e-08 	6.41083e-29
0.0594156 	4.04926e-07 	-5.84205e-08 	4.52889e-29
0.0598623 	4.50542e-07 	-6.01746e-08 	2.64696e-29
0.060309 	4.63572e-07 	-6.20279e-08 	2.05026e-29
0.0607558 	4.6091e-07 	-6.3929e-08 	2.07238e-29
0.0612025 	4.58077e-07 	-6.58102e-08 	1.523e-29
0.0616492 	4.54498e-07 	-6.7605e-08 	-1.50285e-29
0.062096 	4.50918e-07 	-6.93998e-08 	-4.5287e-29
0.0625427 	4.46851e-07 	-7.11158e-08 	-8.99332e-29
0.0629894 	4.42574e-07 	-7.2798e-08 	-1.40746e-28
0.0634362 	4.38186e-07 	-7.44573e-08 	-1.87302e-28
0.0638829 	4.33382e-07 	-7.60315e-08 	-2.18084e-28
0.0643296 	4.28579e-07 	-7.76058e-08 	-2.48867e-28
0.0647764 	4.23486e-07 	-7.91113e-08 	-3.21166e-28
0.0652231 	4.18283e-07 	-8.05906e-08 	-4.09212e-28
0.0656698 	4.13006e-07 	-8.2052e-08 	-4.91558e-28
0.0661166 	4.07492e-07 	-8.34559e-08 	-5.55602e-28
0.0665633 	4.01978e-07 	-8.48598e-08 	-6.19646e-28
0.0670101 	3.96276e-07 	-8.62251e-08 	-4.61733e-28
0.0674568 	3.90511e-07 	-8.75777e-08 	-2.29835e-28
0.0679035 	3.84691e-07 	-8.89238e-08 	4.3528e-30
0.0683503 	3.78713e-07 	-9.0252e-08 	2.44972e-28
0.068797 	3.72735e-07 	-9.15802e-08 	4.8559e-28
0.0692437 	3.66609e-07 	-9.29116e-08 	5.55889e-28
0.0696905 	3.60439e-07 	-9.42439e-08 	5.7674e-28
0.0701372 	3.54217e-07 	-9.55858e-08 	6.32188e-28
0.0705839 	3.47864e-07 	-9.69513e-08 	7.73377e-28
0.0710307 	3.41512e-07 	-9.83167e-08 	9.14567e-28
0.0714774 	3.35012e-07 	-9.97321e-08 	8.41952e-28
0.0719241 	3.28476e-07 	-1.0116e-07 	7.15885e-28
0.0723709 	3.21881e-07 	-1.02616e-07 	4.72824e-28
0.0728176 	3.15154e-07 	-1.04135e-07 	-2.76262e-29
0.0732643 	3.08427e-07 	-1.05655e-07 	-5.28076e-28
0.0737111 	3.01533e-07 	-1.07273e-07 	-8.92512e-28
0.0741578 	2.94603e-07 	-1.08913e-07 	-1.2281e-27
0.0746045 	2.87598e-07 	-1.10604e-07 	-1.55686e-27
0.0750513 	2.80447e-07 	-1.12395e-07 	-1.87223e-27
0.075498 	2.73297e-07 	-1.14186e-07 	-2.18759e-27
0.0759447 	2.65942e-07 	-1.16132e-07 	-2.11606e-27
0.0763915 	2.5855e-07 	-1.18105e-07 	-1.97624e-27
0.0768382 	2.51064e-07 	-1.20157e-07 	-1.57468e-27
0.0772849 	2.43409e-07 	-1.22347e-07 	-7.1279e-28
0.0777317 	2.35755e-07 	-1.24537e-07 	1.49097e-28
0.0781784 	2.27849e-07 	-1.2695e-07 	8.13279e-28
0.0786251 	2.19908e-07 	-1.29395e-07 	1.44922e-27
0.0790719 	2.11846e-07 	-1.31955e-07 	1.89629e-27
0.0795186 	2.03592e-07 	-1.34697e-07 	2.04482e-27
0.0799653 	1.95339e-07 	-1.3744e-07 	2.19335e-27
0.0804121 	1.86785e-07 	-1.40495e-07 	2.02283e-27
0.0808588 	1.78196e-07 	-1.43585e-07 	1.81687e-27
0.0813055 	1.69462e-07 	-1.46842e-07 	1.4076e-27
0.0817523 	1.60519e-07 	-1.50339e-07 	7.08765e-28
0.082199 	1.51576e-07 	-1.53835e-07 	9.93373e-30
0.0826457 	1.42292e-07 	-1.57771e-07 	-6.07675e-28
0.0830925 	1.3298e-07 	-1.61742e-07 	-1.2187e-27
0.0835392 	1.23507e-07 	-1.65957e-07 	-1.58112e-27
0.0839859 	1.13825e-07 	-1.70484e-07 	-1.62391e-27
0.0844327 	1.04143e-07 	-1.75011e-07 	-1.6667e-27
0.0848794 	9.41257e-08 	-1.80152e-07 	-1.06362e-27
0.0853261 	8.40904e-08 	-1.85325e-07 	-4.26549e-28
0.0857729 	7.39114e-08 	-1.90843e-07 	-6.99884e-29
0.0862196 	6.35653e-08 	-1.9676e-07 	-3.94261e-29
0.0866663 	5.32192e-08 	-2.02677e-07 	-8.86389e-30
0.0871131 	4.26433e-08 	-2.09406e-07 	-7.80273e-28
0.0875598 	3.20615e-08 	-2.16155e-07 	-1.57225e-27
0.0880065 	2.14178e-08 	-1.76574e-07 	-1.59046e-27
0.0884533 	1.07089e-08 	-8.82872e-08 	-7.95229e-28
0.0889 	3.19352e-22 	-6.04181e-21 	-6.43047e-41
