# f_l  POINT_DATA 2111
#  x  y  z  f_l
0.000375 0.000375 0 0.5
0.0015 0.00025 5.72608e-20 0.5
0.00025 0.0015 0 0.5
0.0025 0.00025 -1.6386e-20 0.5
0.00025 0.0025 1.89735e-19 0.5
0.00025 0.00025 0.0025 0.5
0.00025 0.00025 -0.0025 0.5
0.00075 0.00025 0.0025 0.5
0.00025 0.00075 0.0025 0.5
0.00025 0.00075 -0.0025 0.5
0.00075 0.00025 -0.0025 0.5
0.001 0.0005 -0.0025 0.5
0.001 0.0005 0.0025 0.5
0.0005 0.001 0.0025 0.5
0.0005 0.001 -0.0025 0.5
0.00125 0.00025 0.0025 0.5
0.00025 0.00125 -0.0025 0.5
0.00125 0.00025 -0.0025 0.5
0.00025 0.00125 0.0025 0.5
0.00175 0.00025 0.0025 0.5
0.00025 0.00175 -0.0025 0.5
0.00175 0.00025 -0.0025 0.5
0.00025 0.00175 0.0025 0.5
0.002 0.0005 -0.0025 0.5
0.002 0.0005 0.0025 0.5
0.0005 0.002 0.0025 0.5
0.0005 0.002 -0.0025 0.5
0.00025 0.00225 0.0025 0.5
0.00025 0.00225 -0.0025 0.5
0.00225 0.00025 0.0025 0.5
0.00225 0.00025 -0.0025 0.5
0.0035 0.00025 -1.38704e-19 0.5
0.00025 0.0035 -1.89735e-19 0.5
0.00025 0.00275 0.0025 0.5
0.00025 0.00275 -0.0025 0.5
0.00275 0.00025 0.0025 0.5
0.00275 0.00025 -0.0025 0.5
0.0005 0.003 -0.0025 0.5
0.003 0.0005 -0.0025 0.5
0.003 0.0005 0.0025 0.5
0.0005 0.003 0.0025 0.5
0.00025 0.00325 0.0025 0.5
0.00325 0.00025 0.0025 0.5
0.00025 0.00325 -0.0025 0.5
0.00325 0.00025 -0.0025 0.5
0.0045 0.00025 -5.72243e-20 0.5
0.00025 0.0045 0 0.5
0.00025 0.00375 0.0025 0.5
0.00375 0.00025 0.0025 0.5
0.00025 0.00375 -0.0025 0.5
0.00375 0.00025 -0.0025 0.5
0.004 0.0005 -0.0025 0.5
0.004 0.0005 0.0025 0.5
0.0005 0.004 0.0025 0.5
0.0005 0.004 -0.0025 0.5
0.00025 0.00425 0.0025 0.5
0.00425 0.00025 0.0025 0.5
0.00025 0.00425 -0.0025 0.5
0.00425 0.00025 -0.0025 0.5
0.00475 0.00025 0.0025 0.5
0.00475 0.00025 -0.0025 0.5
0.00025 0.00475 0.0025 0.5
0.00025 0.00475 -0.0025 0.5
0.00025 0.0055 0 0.5
0.0055 0.00025 -2.36936e-21 0.5
0.005 0.0005 -0.0025 0.5
0.005 0.0005 0.0025 0.5
0.0005 0.005 0.0025 0.5
0.0005 0.005 -0.0025 0.5
0.00025 0.00525 -0.0025 0.5
0.00525 0.00025 0.0025 0.5
0.00025 0.00525 0.0025 0.5
0.00525 0.00025 -0.0025 0.5
0.00025 0.00575 -0.0025 0.5
0.00575 0.00025 0.0025 0.5
0.00575 0.00025 -0.0025 0.5
0.00025 0.00575 0.0025 0.5
0.0065 0.00025 5.2773e-20 0.5
0.00025 0.0065 0 0.5
0.0005 0.006 0.0025 0.5
0.0005 0.006 -0.0025 0.5
0.006 0.0005 -0.0025 0.5
0.006 0.0005 0.0025 0.5
0.00625 0.00025 0.0025 0.5
0.00025 0.00625 0.0025 0.5
0.00025 0.00625 -0.0025 0.5
0.00625 0.00025 -0.0025 0.5
0.00025 0.00675 0.0025 0.5
0.00675 0.00025 0.0025 0.5
0.00025 0.00675 -0.0025 0.5
0.00675 0.00025 -0.0025 0.5
0.007 0.0005 -0.0025 0.5
0.0005 0.007 0.0025 0.5
0.0005 0.007 -0.0025 0.5
0.007 0.0005 0.0025 0.5
0.0075 0.00025 4.99235e-20 0.5
0.00025 0.0075 -2.43945e-19 0.5
0.00025 0.00725 0.0025 0.5
0.00025 0.00725 -0.0025 0.5
0.00725 0.00025 -0.0025 0.5
0.00725 0.00025 0.0025 0.5
0.00025 0.00775 0.0025 0.5
0.00025 0.00775 -0.0025 0.5
0.00775 0.00025 -0.0025 0.5
0.00775 0.00025 0.0025 0.5
0.008 0.0005 -0.0025 0.5
0.008 0.0005 0.0025 0.5
0.0005 0.008 0.0025 0.5
0.0005 0.008 -0.0025 0.5
0.0085 0.00025 -2.36936e-21 0.5
0.00025 0.0085 2.43945e-19 0.5
0.00025 0.00825 0.0025 0.5
0.00825 0.00025 0.0025 0.5
0.00025 0.00825 -0.0025 0.5
0.00825 0.00025 -0.0025 0.5
0.00875 0.00025 0.0025 0.5
0.00025 0.00875 -0.0025 0.5
0.00025 0.00875 0.0025 0.5
0.00875 0.00025 -0.0025 0.5
0.009 0.0005 -0.0025 0.5
0.009 0.0005 0.0025 0.5
0.0005 0.009 0.0025 0.5
0.0005 0.009 -0.0025 0.5
0.0095 0.00025 -8.67352e-20 0.5
0.00025 0.0095 0 0.5
0.00025 0.00925 -0.0025 0.5
0.00025 0.00925 0.0025 0.5
0.00925 0.00025 0.0025 0.5
0.00925 0.00025 -0.0025 0.5
0.00025 0.00975 0.0025 0.5
0.00975 0.00025 0.0025 0.5
0.00025 0.00975 -0.0025 0.5
0.00975 0.00025 -0.0025 0.5
0.01 0.0005 -0.0025 0.5
0.01 0.0005 0.0025 0.5
0.0005 0.01 0.0025 0.5
0.0005 0.01 -0.0025 0.5
0.00025 0.0105 0 0.5
0.0105 0.00025 -7.98788e-20 0.5
0.01025 0.00025 0.0025 0.5
0.00025 0.01025 -0.0025 0.5
0.00025 0.01025 0.0025 0.5
0.01025 0.00025 -0.0025 0.5
0.01075 0.00025 0.0025 0.5
0.00025 0.01075 -0.0025 0.5
0.00025 0.01075 0.0025 0.5
0.01075 0.00025 -0.0025 0.5
0.011 0.0005 -0.0025 0.5
0.011 0.0005 0.0025 0.5
0.0005 0.011 0.0025 0.5
0.0005 0.011 -0.0025 0.5
0.0115 0.00025 0 0.5
0.00025 0.0115 0 0.5
0.00025 0.01125 0.0025 0.5
0.01125 0.00025 0.0025 0.5
0.00025 0.01125 -0.0025 0.5
0.01125 0.00025 -0.0025 0.5
0.00025 0.01175 0.0025 0.5
0.01175 0.00025 0.0025 0.5
0.00025 0.01175 -0.0025 0.5
0.01175 0.00025 -0.0025 0.5
0.0005 0.012 0.0025 0.5
0.0005 0.012 -0.0025 0.5
0.012 0.0005 -0.0025 0.5
0.012 0.0005 0.0025 0.5
0.0125 0.00025 -6.56015e-22 0.5
0.00025 0.0125 0 0.5
0.01225 0.00025 0.0025 0.5
0.00025 0.01225 -0.0025 0.5
0.01225 0.00025 -0.0025 0.5
0.00025 0.01225 0.0025 0.5
0.01275 0.00025 0.0025 0.5
0.00025 0.01275 -0.0025 0.5
0.01275 0.00025 -0.0025 0.5
0.00025 0.01275 0.0025 0.5
0.013 0.0005 -0.0025 0.5
0.013 0.0005 0.0025 0.5
0.0005 0.013 0.0025 0.5
0.0005 0.013 -0.0025 0.5
0.01325 0.00025 0.0025 0.5
0.01325 0.00025 -0.0025 0.5
0.00025 0.01325 0.0025 0.5
0.00025 0.01325 -0.0025 0.5
0.00025 0.0135 0 0.5
0.0135 0.00025 0 0.5
0.01375 0.00025 0.0025 0.5
0.01375 0.00025 -0.0025 0.5
0.00025 0.01375 0.0025 0.5
0.00025 0.01375 -0.0025 0.5
0.014 0.0005 -0.0025 0.5
0.014 0.0005 0.0025 0.5
0.0005 0.014 0.0025 0.5
0.0005 0.014 -0.0025 0.5
0.00025 0.01425 0.0025 0.5
0.01425 0.00025 0.0025 0.5
0.00025 0.01425 -0.0025 0.5
0.01425 0.00025 -0.0025 0.5
0.00025 0.0145 0 0.5
0.0145 0.00025 -8.63823e-20 0.5
0.00025 0.01475 0.0025 0.5
0.01475 0.00025 0.0025 0.5
0.00025 0.01475 -0.0025 0.5
0.01475 0.00025 -0.0025 0.5
0.015 0.0005 -0.0025 0.5
0.015 0.0005 0.0025 0.5
0.0005 0.015 0.0025 0.5
0.0005 0.015 -0.0025 0.5
0.00025 0.01525 0.0025 0.5
0.01525 0.00025 0.0025 0.5
0.00025 0.01525 -0.0025 0.5
0.01525 0.00025 -0.0025 0.5
0.0155 0.00025 -7.83693e-20 0.5
0.00025 0.0155 0 0.5
0.00025 0.01575 0.0025 0.5
0.01575 0.00025 0.0025 0.5
0.00025 0.01575 -0.0025 0.5
0.01575 0.00025 -0.0025 0.5
0.016 0.0005 -0.0025 0.5
0.016 0.0005 0.0025 0.5
0.0005 0.016 0.0025 0.5
0.0005 0.016 -0.0025 0.5
0.00025 0.01625 0.0025 0.5
0.01625 0.00025 0.0025 0.5
0.00025 0.01625 -0.0025 0.5
0.01625 0.00025 -0.0025 0.5
0.0165 0.00025 2.36936e-21 0.5
0.00025 0.0165 0 0.5
0.00025 0.01675 0.0025 0.5
0.01675 0.00025 0.0025 0.5
0.00025 0.01675 -0.0025 0.5
0.01675 0.00025 -0.0025 0.5
0.017 0.0005 -0.0025 0.5
0.017 0.0005 0.0025 0.5
0.0005 0.017 0.0025 0.5
0.0005 0.017 -0.0025 0.5
0.01725 0.00025 0.0025 0.5
0.00025 0.01725 -0.0025 0.5
0.00025 0.01725 0.0025 0.5
0.01725 0.00025 -0.0025 0.5
0.0175 0.00025 -4.73871e-21 0.5
0.00025 0.0175 0 0.5
0.01775 0.00025 0.0025 0.5
0.00025 0.01775 -0.0025 0.5
0.00025 0.01775 0.0025 0.5
0.01775 0.00025 -0.0025 0.5
0.018 0.0005 -0.0025 0.5
0.018 0.0005 0.0025 0.5
0.0005 0.018 0.0025 0.5
0.0005 0.018 -0.0025 0.5
0.00025 0.01825 0.0025 0.5
0.00025 0.01825 -0.0025 0.5
0.01825 0.00025 0.0025 0.5
0.01825 0.00025 -0.0025 0.5
0.0185 0.00025 9.3497e-20 0.5
0.00025 0.0185 -4.33681e-19 0.5
0.00025 0.01875 0.0025 0.5
0.01875 0.00025 0.0025 0.5
0.00025 0.01875 -0.0025 0.5
0.01875 0.00025 -0.0025 0.5
0.019 0.0005 -0.0025 0.5
0.019 0.0005 0.0025 0.5
0.0005 0.019 0.0025 0.5
0.0005 0.019 -0.0025 0.5
0.00025 0.01925 0.0025 0.5
0.01925 0.00025 0.0025 0.5
0.00025 0.01925 -0.0025 0.5
0.01925 0.00025 -0.0025 0.5
0.0195 0.00025 1.73131e-19 0.5
0.00025 0.0195 4.33681e-19 0.5
0.00025 0.01975 0.0025 0.5
0.01975 0.00025 0.0025 0.5
0.00025 0.01975 -0.0025 0.5
0.01975 0.00025 -0.0025 0.5
0.02 0.0005 -0.0025 0.5
0.02 0.0005 0.0025 0.5
0.0005 0.02 0.0025 0.5
0.0005 0.02 -0.0025 0.5
0.02025 0.00025 0.0025 0.5
0.00025 0.02025 0.0025 0.5
0.00025 0.02025 -0.0025 0.5
0.02025 0.00025 -0.0025 0.5
0.0205 0.00025 -7.72063e-20 0.5
0.00025 0.0205 0 0.5
0.02075 0.00025 0.0025 0.5
0.00025 0.02075 -0.0025 0.5
0.00025 0.02075 0.0025 0.5
0.02075 0.00025 -0.0025 0.5
0.021 0.0005 -0.0025 0.5
0.021 0.0005 0.0025 0.5
0.0005 0.021 0.0025 0.5
0.0005 0.021 -0.0025 0.5
0.00025 0.02125 0.0025 0.5
0.02125 0.00025 0.0025 0.5
0.00025 0.02125 -0.0025 0.5
0.02125 0.00025 -0.0025 0.5
0.0215 0.00025 0 0.5
0.00025 0.0215 0 0.5
0.00025 0.02175 0.0025 0.5
0.02175 0.00025 0.0025 0.5
0.00025 0.02175 -0.0025 0.5
0.02175 0.00025 -0.0025 0.5
0.022 0.0005 -0.0025 0.5
0.022 0.0005 0.0025 0.5
0.0005 0.022 0.0025 0.5
0.0005 0.022 -0.0025 0.5
0.00025 0.02225 0.0025 0.5
0.02225 0.00025 0.0025 0.5
0.00025 0.02225 -0.0025 0.5
0.02225 0.00025 -0.0025 0.5
0.0225 0.00025 0 0.5
0.00025 0.0225 0 0.5
0.00025 0.02275 0.0025 0.5
0.02275 0.00025 0.0025 0.5
0.00025 0.02275 -0.0025 0.5
0.02275 0.00025 -0.0025 0.5
0.023 0.0005 -0.0025 0.5
0.023 0.0005 0.0025 0.5
0.0005 0.023 0.0025 0.5
0.0005 0.023 -0.0025 0.5
0.00025 0.02325 0.0025 0.5
0.02325 0.00025 0.0025 0.5
0.00025 0.02325 -0.0025 0.5
0.02325 0.00025 -0.0025 0.5
0.0235 0.00025 0 0.5
0.00025 0.0235 0 0.5
0.00025 0.02375 0.0025 0.5
0.02375 0.00025 0.0025 0.5
0.00025 0.02375 -0.0025 0.5
0.02375 0.00025 -0.0025 0.5
0.0005 0.024 0.0025 0.5
0.0005 0.024 -0.0025 0.5
0.024 0.0005 -0.0025 0.5
0.024 0.0005 0.0025 0.5
0.00025 0.02425 0.0025 0.5
0.00025 0.02425 -0.0025 0.5
0.02425 0.00025 -0.0025 0.5
0.02425 0.00025 0.0025 0.5
0.0245 0.00025 -6.8571e-21 0.5
0.00025 0.0245 0 0.5
0.00025 0.02475 0.0025 0.5
0.00025 0.02475 -0.0025 0.5
0.02475 0.00025 -0.0025 0.5
0.02475 0.00025 0.0025 0.5
0.025016 0.0005 -1.72663e-19 0.5
0.025044 0.0015 -7.15982e-20 0.5
0.0005 0.025 0.0025 0.5
0.0005 0.025 -0.0025 0.5
0.025 0.000947039 -0.0025 0.5
0.025 0.000947039 0.0025 0.5
0.0250281 0.000971867 -0.00235933 0.5
0.0250281 0.000971867 0.00235933 0.5
0.0250313 0.00103127 -0.00234366 0.5
0.0250313 0.00103127 0.00234366 0.5
0.0250281 0.000971867 0.0025 0.5
0.0250281 0.000971867 -0.0025 0.5
0.0250313 0.00103127 0.0025 0.5
0.0250313 0.00103127 -0.0025 0.5
0.0250702 0.0025 3.43441e-21 0.5
0.0250559 0.001 0.0025 0.5
0.0250559 0.001 -0.0025 0.5
0.0250542 0.00194578 -0.00222892 0.5
0.0250542 0.00194578 0.00222892 0.5
0.0250596 0.00205957 -0.00220215 0.5
0.0250596 0.00205957 0.00220215 0.5
0.0250542 0.00194578 -0.0025 0.5
0.0250542 0.00194578 0.0025 0.5
0.0250596 0.00205957 0.0025 0.5
0.0250596 0.00205957 -0.0025 0.5
0.025102 0.002 0.0025 0.5
0.025102 0.002 -0.0025 0.5
0.0250818 0.00291821 -0.00209107 0.5
0.0250818 0.00291821 0.00209107 0.5
0.0251037 0.0035 3.26441e-20 0.5
0.0250917 0.00309169 -0.00204157 0.5
0.0250917 0.00309169 0.00204157 0.5
0.0250818 0.00291821 0.0025 0.5
0.0250818 0.00291821 -0.0025 0.5
0.00025 0.02525 -0.0025 0.5
0.00025 0.02525 0.0025 0.5
0.0250917 0.00309169 0.0025 0.5
0.0250917 0.00309169 -0.0025 0.5
0.0251474 0.003 0.0025 0.5
0.0251474 0.003 -0.0025 0.5
0.0251169 0.00388315 -0.00191574 0.5
0.0251169 0.00388315 0.00191574 0.5
0.00025 0.0255 0 0.5
0.0251169 0.00388315 0.0025 0.5
0.0251169 0.00388315 -0.0025 0.5
0.0251348 0.00413477 -0.00182616 0.5
0.0251348 0.00413477 0.00182616 0.5
0.0251483 0.0045 -7.28724e-20 0.5
0.0251348 0.00413477 0.0025 0.5
0.0251348 0.00413477 -0.0025 0.5
0.0252002 0.004 0.0025 0.5
0.0252002 0.004 -0.0025 0.5
0.0251618 0.00483819 -0.00169093 0.5
0.0251618 0.00483819 0.00169093 0.5
0.0251618 0.00483819 0.0025 0.5
0.0251618 0.00483819 -0.0025 0.5
0.0251913 0.00519132 -0.00154339 0.5
0.0251913 0.00519132 0.00154339 0.5
0.0252048 0.0055 -1.67071e-19 0.5
0.0251913 0.00519132 0.0025 0.5
0.0251913 0.00519132 -0.0025 0.5
0.0252596 0.005 0.0025 0.5
0.0252596 0.005 -0.0025 0.5
0.00025 0.02575 -0.0025 0.5
0.00025 0.02575 0.0025 0.5
0.025217 0.005783 -0.001415 0.5
0.025217 0.005783 0.001415 0.5
0.025217 0.005783 0.0025 0.5
0.025217 0.005783 -0.0025 0.5
0.0252707 0.00649314 -5.90088e-21 0.5
0.0005 0.026 0.0025 0.5
0.0005 0.026 -0.0025 0.5
0.0253212 0.006 0.0025 0.5
0.0253212 0.006 -0.0025 0.5
0.0252601 0.00626005 0.0025 0.5
0.0252601 0.00626005 -0.0025 0.5
0.0252806 0.00671937 0.0025 0.5
0.0252806 0.00671937 -0.0025 0.5
0.00025 0.02625 0.0025 0.5
0.00025 0.02625 -0.0025 0.5
0.0253416 0.00749566 2.69879e-20 0.5
0.0253791 0.007 0.0025 0.5
0.0253791 0.007 -0.0025 0.5
0.0253347 0.00733473 -0.0025 0.5
0.0253347 0.00733473 0.0025 0.5
0.00025 0.0265 0 0.5
0.0253478 0.00765225 0.0025 0.5
0.0253478 0.00765225 -0.0025 0.5
0.0254276 0.008 -0.0025 0.5
0.0254276 0.008 0.0025 0.5
0.0254064 0.0084981 -2.18295e-19 0.5
0.00025 0.02675 0.0025 0.5
0.00025 0.02675 -0.0025 0.5
0.0254033 0.00840326 0.0025 0.5
0.0254033 0.00840326 -0.0025 0.5
0.0254089 0.00859105 0.0025 0.5
0.0254089 0.00859105 -0.0025 0.5
0.0254607 0.009 0.0025 0.5
0.0254607 0.009 -0.0025 0.5
0.0005 0.027 0.0025 0.5
0.0005 0.027 -0.0025 0.5
0.0254477 0.00949959 3.1694e-19 0.5
0.0254469 0.00944692 0.0025 0.5
0.0254469 0.00944692 -0.0025 0.5
0.0254482 0.00955184 0.0025 0.5
0.0254482 0.00955184 -0.0025 0.5
0.00025 0.02725 0.0025 0.5
0.00025 0.02725 -0.0025 0.5
0.025473 0.01 0.0025 0.5
0.025473 0.01 -0.0025 0.5
0.00025 0.0275 0 0.5
0.0254489 0.0105004 -3.84562e-19 0.5
0.0254493 0.0104493 -0.0025 0.5
0.0254493 0.0104493 0.0025 0.5
0.0254482 0.0105518 -0.0025 0.5
0.0254482 0.0105518 0.0025 0.5
0.0254621 0.011 0.0025 0.5
0.0254621 0.011 -0.0025 0.5
0.00025 0.02775 0.0025 0.5
0.00025 0.02775 -0.0025 0.5
0.02541 0.0115017 2.15778e-19 0.5
0.0254124 0.0114124 0.0025 0.5
0.0254124 0.0114124 -0.0025 0.5
0.0254072 0.0115928 0.0025 0.5
0.0254072 0.0115928 -0.0025 0.5
0.0005 0.028 0.0025 0.5
0.0005 0.028 -0.0025 0.5
0.0254307 0.012 0.0025 0.5
0.0254307 0.012 -0.0025 0.5
0.0253476 0.012504 1.62007e-21 0.5
0.0253532 0.0123532 0.0025 0.5
0.0253532 0.0123532 -0.0025 0.5
0.00025 0.02825 0.0025 0.5
0.00025 0.02825 -0.0025 0.5
0.0253413 0.0126587 0.0025 0.5
0.0253413 0.0126587 -0.0025 0.5
0.00025 0.0285 0 0.5
0.0253848 0.013 0.0025 0.5
0.0253848 0.013 -0.0025 0.5
0.0252797 0.0135061 1.8745e-19 0.5
0.0252887 0.0132887 -0.0025 0.5
0.0252887 0.0132887 0.0025 0.5
0.00025 0.02875 0.0025 0.5
0.00025 0.02875 -0.0025 0.5
0.0252704 0.0137296 -0.0025 0.5
0.0252704 0.0137296 0.0025 0.5
0.0252294 0.0142294 -0.00135301 0.5
0.0252294 0.0142294 0.00135301 0.5
0.0253317 0.014 0.0025 0.5
0.0253317 0.014 -0.0025 0.5
0.0252294 0.0142294 0.0025 0.5
0.0252294 0.0142294 -0.0025 0.5
0.0252187 0.0145 0 0.5
0.0005 0.029 0.0025 0.5
0.0005 0.029 -0.0025 0.5
0.0252085 0.0147915 -0.0014576 0.5
0.0252085 0.0147915 0.0014576 0.5
0.0252085 0.0147915 0.0025 0.5
0.0252085 0.0147915 -0.0025 0.5
0.00025 0.02925 0.0025 0.5
0.00025 0.02925 -0.0025 0.5
0.0251819 0.0151819 -0.00159033 0.5
0.0251819 0.0151819 0.00159033 0.5
0.00025 0.0295 -1.6263e-19 0.5
0.0252799 0.015 0.0025 0.5
0.0252799 0.015 -0.0025 0.5
0.0251819 0.0151819 0.0025 0.5
0.0251819 0.0151819 -0.0025 0.5
0.0251715 0.0155 0 0.5
0.0251642 0.0158358 -0.00167886 0.5
0.0251642 0.0158358 0.00167886 0.5
0.0251642 0.0158358 0.0025 0.5
0.0251642 0.0158358 -0.0025 0.5
0.00025 0.02975 0.0025 0.5
0.00025 0.02975 -0.0025 0.5
0.0251509 0.0161509 -0.00174545 0.5
0.0251509 0.0161509 0.00174545 0.5
0.0252393 0.016 0.0025 0.5
0.0252393 0.016 -0.0025 0.5
0.0251509 0.0161509 0.0025 0.5
0.0251509 0.0161509 -0.0025 0.5
0.0251437 0.0165 3.07873e-20 0.5
0.0005 0.03 0.0025 0.5
0.0005 0.03 -0.0025 0.5
0.0251408 0.0168592 -0.00179609 0.5
0.0251408 0.0168592 0.00179609 0.5
0.00025 0.03025 0.0025 0.5
0.00025 0.03025 -0.0025 0.5
0.0251408 0.0168592 0.0025 0.5
0.0251408 0.0168592 -0.0025 0.5
0.0251363 0.0171363 -0.00181832 0.5
0.0251363 0.0171363 0.00181832 0.5
0.00025 0.0305 0 0.5
0.0252169 0.017 -0.0025 0.5
0.0252169 0.017 0.0025 0.5
0.0251363 0.0171363 0.0025 0.5
0.0251363 0.0171363 -0.0025 0.5
0.0251334 0.0175 -2.71223e-19 0.5
0.00025 0.03075 0.0025 0.5
0.00025 0.03075 -0.0025 0.5
0.025135 0.017865 -0.00182522 0.5
0.025135 0.017865 0.00182522 0.5
0.025135 0.017865 -0.0025 0.5
0.025135 0.017865 0.0025 0.5
0.0251372 0.0181372 -0.00181388 0.5
0.0251372 0.0181372 0.00181388 0.5
0.0252139 0.018 0.0025 0.5
0.0252139 0.018 -0.0025 0.5
0.0251372 0.0181372 0.0025 0.5
0.0251372 0.0181372 -0.0025 0.5
0.0005 0.031 0.0025 0.5
0.0005 0.031 -0.0025 0.5
0.0251387 0.0185 7.24425e-20 0.5
0.00025 0.03125 0.0025 0.5
0.00025 0.03125 -0.0025 0.5
0.0251511 0.0188489 -0.00174457 0.5
0.0251511 0.0188489 0.00174457 0.5
0.00025 0.0315 0 0.5
0.0251511 0.0188489 0.0025 0.5
0.0251511 0.0188489 -0.0025 0.5
0.025175 0.019175 -0.00162497 0.5
0.025175 0.019175 0.00162497 0.5
0.0252449 0.019 0.0025 0.5
0.0252449 0.019 -0.0025 0.5
0.025175 0.019175 0.0025 0.5
0.025175 0.019175 -0.0025 0.5
0.00025 0.03175 0.0025 0.5
0.00025 0.03175 -0.0025 0.5
0.0251874 0.0195 -5.65136e-21 0.5
0.0252252 0.0197748 -0.00137395 0.5
0.0252252 0.0197748 0.00137395 0.5
0.0005 0.032 0.0025 0.5
0.0005 0.032 -0.0025 0.5
0.0252252 0.0197748 0.0025 0.5
0.0252252 0.0197748 -0.0025 0.5
0.00025 0.03225 0.0025 0.5
0.00025 0.03225 -0.0025 0.5
0.0253727 0.02 0.0025 0.5
0.0253727 0.02 -0.0025 0.5
0.00025 0.0325 0 0.5
0.0254556 0.0205002 -8.13622e-21 0.5
0.0254365 0.0204365 0.0025 0.5
0.0254365 0.0204365 -0.0025 0.5
0.0254657 0.0205343 0.0025 0.5
0.0254657 0.0205343 -0.0025 0.5
0.00025 0.03275 0.0025 0.5
0.00025 0.03275 -0.0025 0.5
0.0005 0.033 0.0025 0.5
0.0005 0.033 -0.0025 0.5
0.0257439 0.021 0.0025 0.5
0.0257439 0.021 -0.0025 0.5
0.00025 0.03325 0.0025 0.5
0.00025 0.03325 -0.0025 0.5
0.0258989 0.0211011 0.00199427 0.5
0.0258989 0.0211011 -0.00199427 0.5
0.0258989 0.0211011 0.0025 0.5
0.0258989 0.0211011 -0.0025 0.5
0.00025 0.0335 0 0.5
0.0260102 0.0215 -6.15401e-19 0.5
0.00025 0.03375 0.0025 0.5
0.00025 0.03375 -0.0025 0.5
0.026 0.0215284 -0.0025 0.5
0.026 0.0215284 0.0025 0.5
0.0005 0.034 0.0025 0.5
0.0005 0.034 -0.0025 0.5
0.0260954 0.0219046 0.00202315 0.5
0.0260954 0.0219046 -0.00202315 0.5
0.0260954 0.0219046 0.0025 0.5
0.0260954 0.0219046 -0.0025 0.5
0.0262263 0.022 -0.0025 0.5
0.0262263 0.022 0.0025 0.5
0.00025 0.03425 0.0025 0.5
0.00025 0.03425 -0.0025 0.5
0.00025 0.0345 0 0.5
0.0263135 0.0223135 0.0025 0.5
0.0263135 0.0223135 -0.0025 0.5
0.026387 0.0224898 5.70365e-19 0.5
0.00025 0.03475 0.0025 0.5
0.00025 0.03475 -0.0025 0.5
0.0264209 0.0225791 0.0025 0.5
0.0264209 0.0225791 -0.0025 0.5
0.0005 0.035 0.0025 0.5
0.0005 0.035 -0.0025 0.5
0.00025 0.03525 0.0025 0.5
0.00025 0.03525 -0.0025 0.5
0.0267743 0.023 -0.0025 0.5
0.0267743 0.023 0.0025 0.5
0.00025 0.0355 0 0.5
0.0269136 0.0230864 0.00206807 0.5
0.0269136 0.0230864 -0.00206807 0.5
0.0269136 0.0230864 0.0025 0.5
0.0269136 0.0230864 -0.0025 0.5
0.027 0.0232665 -0.0025 0.5
0.027 0.0232665 0.0025 0.5
0.00025 0.03575 0.0025 0.5
0.00025 0.03575 -0.0025 0.5
0.0005 0.036 0.0025 0.5
0.0005 0.036 -0.0025 0.5
0.027294 0.023706 0 0.5
0.0272253 0.0237747 -0.00137342 0.5
0.0272253 0.0237747 0.00137342 0.5
0.0272253 0.0237747 0.0025 0.5
0.0272253 0.0237747 -0.0025 0.5
0.00025 0.03625 0.0025 0.5
0.00025 0.03625 -0.0025 0.5
0.00025 0.0365 0 0.5
0.0275822 0.024 -0.0025 0.5
0.0275822 0.024 0.0025 0.5
0.00025 0.03675 0.0025 0.5
0.00025 0.03675 -0.0025 0.5
0.027854 0.024146 0.00176995 0.5
0.027854 0.024146 -0.00176995 0.5
0.027854 0.024146 0.0025 0.5
0.027854 0.024146 -0.0025 0.5
0.0005 0.037 0.0025 0.5
0.0005 0.037 -0.0025 0.5
0.028013 0.0245 1.16697e-19 0.5
0.028 0.0245306 0.0025 0.5
0.028 0.0245306 -0.0025 0.5
0.00025 0.03725 -0.0025 0.5
0.00025 0.03725 0.0025 0.5
0.00025 0.0375 -6.77626e-19 0.5
0.0281389 0.0248611 -0.00180573 0.5
0.0281389 0.0248611 0.00180573 0.5
0.0281389 0.0248611 0.0025 0.5
0.0281389 0.0248611 -0.0025 0.5
0.00025 0.03775 0.0025 0.5
0.00025 0.03775 -0.0025 0.5
0.0283649 0.025 0.0025 0.5
0.0283649 0.025 -0.0025 0.5
0.0005 0.038 0.0025 0.5
0.0005 0.038 -0.0025 0.5
0.0286789 0.0253193 2.40646e-21 0.5
0.00025 0.03825 0.0025 0.5
0.00025 0.03825 -0.0025 0.5
0.0286958 0.0253042 -0.0025 0.5
0.0286958 0.0253042 0.0025 0.5
0.00025 0.0385 8.67362e-19 0.5
0.00025 0.03875 0.0025 0.5
0.00025 0.03875 -0.0025 0.5
0.029 0.0259538 -0.0025 0.5
0.029 0.0259538 0.0025 0.5
0.0290149 0.0259851 -0.0024254 0.5
0.0290149 0.0259851 0.0024254 0.5
0.0290149 0.0259851 0.0025 0.5
0.0290149 0.0259851 -0.0025 0.5
0.0290361 0.026 0.0025 0.5
0.0290361 0.026 -0.0025 0.5
0.0290486 0.0260486 -0.0022571 0.5
0.0290486 0.0260486 0.0022571 0.5
0.0005 0.039 0.0025 0.5
0.0005 0.039 -0.0025 0.5
0.0290486 0.0260486 0.0025 0.5
0.0290486 0.0260486 -0.0025 0.5
0.00025 0.03925 -0.0025 0.5
0.00025 0.03925 0.0025 0.5
0.00025 0.0395 0 0.5
0.0293642 0.0266358 0 0.5
0.0293518 0.0266482 0.0025 0.5
0.0293518 0.0266482 -0.0025 0.5
0.00025 0.03975 -0.0025 0.5
0.00025 0.03975 0.0025 0.5
0.0005 0.04 0.0025 0.5
0.0005 0.04 -0.0025 0.5
0.0297145 0.027 0.0025 0.5
0.0297145 0.027 -0.0025 0.5
0.00025 0.04025 0.0025 0.5
0.00025 0.04025 -0.0025 0.5
0.0298934 0.0271066 0.00196677 0.5
0.0298934 0.0271066 -0.00196677 0.5
0.0298934 0.0271066 0.0025 0.5
0.0298934 0.0271066 -0.0025 0.5
0.00025 0.0405 6.77626e-19 0.5
0.03 0.0274003 -0.0025 0.5
0.03 0.0274003 0.0025 0.5
0.030056 0.0275 8.65126e-19 0.5
0.00025 0.04075 0.0025 0.5
0.00025 0.04075 -0.0025 0.5
0.0301685 0.0278315 -0.00165731 0.5
0.0301685 0.0278315 0.00165731 0.5
0.0005 0.041 -0.0025 0.5
0.0005 0.041 0.0025 0.5
0.0301685 0.0278315 -0.0025 0.5
0.0301685 0.0278315 0.0025 0.5
0.00025 0.04125 0.0025 0.5
0.00025 0.04125 -0.0025 0.5
0.0304061 0.028 -0.0025 0.5
0.0304061 0.028 0.0025 0.5
0.00025 0.0415 -6.77626e-19 0.5
0.0306882 0.0283036 -9.16669e-19 0.5
0.00025 0.04175 0.0025 0.5
0.00025 0.04175 -0.0025 0.5
0.030708 0.028292 0.0025 0.5
0.030708 0.028292 -0.0025 0.5
0.0005 0.042 0.0025 0.5
0.0005 0.042 -0.0025 0.5
0.00025 0.04225 0.0025 0.5
0.00025 0.04225 -0.0025 0.5
0.0309485 0.0289485 -0.00224234 0.5
0.0309485 0.0289485 0.00224234 0.5
0.0309485 0.0289485 -0.0025 0.5
0.0309485 0.0289485 0.0025 0.5
0.0309462 0.029 0.0025 0.5
0.0309462 0.029 -0.0025 0.5
0.00025 0.0425 0 0.5
0.0309768 0.0290232 0.00238411 0.5
0.0309768 0.0290232 -0.00238411 0.5
0.0309768 0.0290232 0.0025 0.5
0.0309768 0.0290232 -0.0025 0.5
0.031 0.0290877 -0.0025 0.5
0.031 0.0290877 0.0025 0.5
0.00025 0.04275 0.0025 0.5
0.00025 0.04275 -0.0025 0.5
0.0005 0.043 0.0025 0.5
0.0005 0.043 -0.0025 0.5
0.031225 0.029775 -0.00137477 0.5
0.031225 0.029775 0.00137477 0.5
0.0313091 0.0297457 -2.22358e-20 0.5
0.031225 0.029775 0.0025 0.5
0.031225 0.029775 -0.0025 0.5
0.00025 0.04325 0.0025 0.5
0.00025 0.04325 -0.0025 0.5
0.00025 0.0435 0 0.5
0.0315054 0.03 0.0025 0.5
0.0315054 0.03 -0.0025 0.5
0.00025 0.04375 0.0025 0.5
0.00025 0.04375 -0.0025 0.5
0.0317819 0.0302181 0.0014093 0.5
0.0317819 0.0302181 -0.0014093 0.5
0.0317819 0.0302181 0.0025 0.5
0.0317819 0.0302181 -0.0025 0.5
0.0005 0.044 0.0025 0.5
0.0005 0.044 -0.0025 0.5
0.0318899 0.0305 4.61485e-22 0.5
0.00025 0.04425 0.0025 0.5
0.00025 0.04425 -0.0025 0.5
0.00025 0.0445 -8.67362e-19 0.5
0.031999 0.030999 -0.00249476 0.5
0.031999 0.030999 0.00249476 0.5
0.031999 0.030999 0.0025 0.5
0.031999 0.030999 -0.0025 0.5
0.0319985 0.031 0.0025 0.5
0.0319985 0.031 -0.0025 0.5
0.0319993 0.0310007 0.00249665 0.5
0.0319993 0.0310007 -0.00249665 0.5
0.0319993 0.0310007 0.0025 0.5
0.0319993 0.0310007 -0.0025 0.5
0.032 0.0310033 -0.0025 0.5
0.032 0.0310033 0.0025 0.5
0.00025 0.04475 0.0025 0.5
0.00025 0.04475 -0.0025 0.5
0.0321081 0.0315 0 0.5
0.0005 0.045 0.0025 0.5
0.0005 0.045 -0.0025 0.5
0.0321925 0.0318075 -0.00153737 0.5
0.0321925 0.0318075 0.00153737 0.5
0.00025 0.04525 0.0025 0.5
0.00025 0.04525 -0.0025 0.5
0.0321925 0.0318075 -0.0025 0.5
0.0321925 0.0318075 0.0025 0.5
0.00025 0.0455 1.49078e-18 0.5
0.0324035 0.032 0.0025 0.5
0.0324035 0.032 -0.0025 0.5
0.00025 0.04575 0.0025 0.5
0.00025 0.04575 -0.0025 0.5
0.032635 0.0323515 -1.00869e-19 0.5
0.0326512 0.0323488 0.0025 0.5
0.0326512 0.0323488 -0.0025 0.5
0.0005 0.046 -0.0025 0.5
0.0005 0.046 0.0025 0.5
0.00025 0.04625 0.0025 0.5
0.00025 0.04625 -0.0025 0.5
0.0328156 0.0328156 -0.00157797 0.5
0.0328156 0.0328156 0.00157797 0.5
0.0328156 0.0328156 0.0025 0.5
0.0328156 0.0328156 -0.0025 0.5
0.00025 0.0465 -8.67362e-19 0.5
0.0328436 0.033 0.0025 0.5
0.0328436 0.033 -0.0025 0.5
0.0329344 0.0330656 0.00217189 0.5
0.0329344 0.0330656 -0.00217189 0.5
0.0329344 0.0330656 0.0025 0.5
0.0329344 0.0330656 -0.0025 0.5
0.00025 0.04675 0.0025 0.5
0.00025 0.04675 -0.0025 0.5
0.0330368 0.0335 2.05341e-20 0.5
0.033 0.0334635 0.0025 0.5
0.033 0.0334635 -0.0025 0.5
0.0005 0.047 0.0025 0.5
0.0005 0.047 -0.0025 0.5
0.00025 0.04725 0.0025 0.5
0.00025 0.04725 -0.0025 0.5
0.0330842 0.0339158 -0.00207876 0.5
0.0330842 0.0339158 0.00207876 0.5
0.0330842 0.0339158 -0.0025 0.5
0.0330842 0.0339158 0.0025 0.5
0.00025 0.0475 0 0.5
0.0331748 0.034 -0.0025 0.5
0.0331748 0.034 0.0025 0.5
0.0331427 0.0341427 -0.00178656 0.5
0.0331427 0.0341427 0.00178656 0.5
0.0331427 0.0341427 0.0025 0.5
0.0331427 0.0341427 -0.0025 0.5
0.00025 0.04775 0.0025 0.5
0.00025 0.04775 -0.0025 0.5
0.0332318 0.0346667 -5.88302e-19 0.5
0.0005 0.048 0.0025 0.5
0.0005 0.048 -0.0025 0.5
0.03325 0.03475 0.0025 0.5
0.03325 0.03475 -0.0025 0.5
0.00025 0.04825 0.0025 0.5
0.00025 0.04825 -0.0025 0.5
0.0334378 0.035 0.0025 0.5
0.0334378 0.035 -0.0025 0.5
0.00025 0.0485 0 0.5
0.00025 0.04875 0.0025 0.5
0.00025 0.04875 -0.0025 0.5
0.0336259 0.0353741 -0.0025 0.5
0.0336259 0.0353741 0.0025 0.5
0.033658 0.0354947 1.99488e-18 0.5
0.0005 0.049 0.0025 0.5
0.0005 0.049 -0.0025 0.5
0.0337445 0.0357445 0.0025 0.5
0.0337445 0.0357445 -0.0025 0.5
0.00025 0.04925 0.0025 0.5
0.00025 0.04925 -0.0025 0.5
0.0338013 0.036 -0.0025 0.5
0.0338013 0.036 0.0025 0.5
0.00025 0.0495 0 0.5
0.0339175 0.0360825 -0.0020874 0.5
0.0339175 0.0360825 0.0020874 0.5
0.0339175 0.0360825 0.0025 0.5
0.0339175 0.0360825 -0.0025 0.5
0.00025 0.04975 0.0025 0.5
0.00025 0.04975 -0.0025 0.5
0.0340051 0.0365 -1.48891e-18 0.5
0.0005 0.05 0.0025 0.5
0.0005 0.05 -0.0025 0.5
0.034 0.0367562 -0.0025 0.5
0.034 0.0367562 0.0025 0.5
0.0340305 0.0369695 -0.00234735 0.5
0.0340305 0.0369695 0.00234735 0.5
0.0340305 0.0369695 0.0025 0.5
0.0340305 0.0369695 -0.0025 0.5
0.00025 0.05025 -0.0025 0.5
0.00025 0.05025 0.0025 0.5
0.0340637 0.037 0.0025 0.5
0.0340637 0.037 -0.0025 0.5
0.0340384 0.0370384 -0.00230786 0.5
0.0340384 0.0370384 0.00230786 0.5
0.0340384 0.0370384 0.0025 0.5
0.0340384 0.0370384 -0.0025 0.5
0.00025 0.0505 1.49078e-18 0.5
0.0340665 0.0375 4.93052e-20 0.5
0.00025 0.05075 -0.0025 0.5
0.00025 0.05075 0.0025 0.5
0.0341012 0.0378988 -0.00199398 0.5
0.0341012 0.0378988 0.00199398 0.5
0.0341012 0.0378988 0.0025 0.5
0.0341012 0.0378988 -0.0025 0.5
0.0005 0.051 -0.0025 0.5
0.0005 0.051 0.0025 0.5
0.0341942 0.038 0.0025 0.5
0.0341942 0.038 -0.0025 0.5
0.0341489 0.0381489 -0.00175533 0.5
0.0341489 0.0381489 0.00175533 0.5
0.0341489 0.0381489 0.0025 0.5
0.0341489 0.0381489 -0.0025 0.5
0.00025 0.05125 0.0025 0.5
0.00025 0.05125 -0.0025 0.5
0.034186 0.0385 0 0.5
0.00025 0.0515 -1.49078e-18 0.5
0.034214 0.038786 -0.00142988 0.5
0.034214 0.038786 0.00142988 0.5
0.034214 0.038786 0.0025 0.5
0.034214 0.038786 -0.0025 0.5
0.00025 0.05175 0.0025 0.5
0.00025 0.05175 -0.0025 0.5
0.0343426 0.039 0.0025 0.5
0.0343426 0.039 -0.0025 0.5
0.0005 0.052 0.0025 0.5
0.0005 0.052 -0.0025 0.5
0.0343331 0.0393331 0.0025 0.5
0.0343331 0.0393331 -0.0025 0.5
0.00025 0.05225 0.0025 0.5
0.00025 0.05225 -0.0025 0.5
0.0343508 0.0394891 2.02372e-22 0.5
0.00025 0.0525 0 0.5
0.0343659 0.0396341 0.0025 0.5
0.0343659 0.0396341 -0.0025 0.5
0.00025 0.05275 0.0025 0.5
0.00025 0.05275 -0.0025 0.5
0.0344686 0.04 -0.0025 0.5
0.0344686 0.04 0.0025 0.5
0.0005 0.053 0.0025 0.5
0.0005 0.053 -0.0025 0.5
0.0345401 0.0404825 6.81066e-21 0.5
0.0345398 0.0404602 0.0025 0.5
0.0345398 0.0404602 -0.0025 0.5
0.00025 0.05325 0.0025 0.5
0.00025 0.05325 -0.0025 0.5
0.0345467 0.0405467 0.0025 0.5
0.0345467 0.0405467 -0.0025 0.5
0.00025 0.0535 0 0.5
0.0345546 0.041 0.0025 0.5
0.0345546 0.041 -0.0025 0.5
0.00025 0.05375 0.0025 0.5
0.00025 0.05375 -0.0025 0.5
0.0346397 0.0413603 0.0025 0.5
0.0346397 0.0413603 -0.0025 0.5
0.0005 0.054 0.0025 0.5
0.0005 0.054 -0.0025 0.5
0.0346452 0.0415029 -1.10626e-19 0.5
0.0346485 0.0416485 0.0025 0.5
0.0346485 0.0416485 -0.0025 0.5
0.00025 0.05425 0.0025 0.5
0.00025 0.05425 -0.0025 0.5
0.0345914 0.042 -0.0025 0.5
0.0345914 0.042 0.0025 0.5
0.00025 0.0545 0 0.5
0.0346605 0.0423395 0.0025 0.5
0.0346605 0.0423395 -0.0025 0.5
0.00025 0.05475 0.0025 0.5
0.00025 0.05475 -0.0025 0.5
0.0346596 0.0424986 -2.061e-18 0.5
0.0346564 0.0426564 0.0025 0.5
0.0346564 0.0426564 -0.0025 0.5
0.0005 0.055 0.0025 0.5
0.0005 0.055 -0.0025 0.5
0.0345756 0.043 0.0025 0.5
0.0345756 0.043 -0.0025 0.5
0.00025 0.05525 0.0025 0.5
0.00025 0.05525 -0.0025 0.5
0.00025 0.0555 0 0.5
0.0346025 0.0433975 0.0025 0.5
0.0346025 0.0433975 -0.0025 0.5
0.0345976 0.0434963 2.54757e-18 0.5
0.0345916 0.0435916 0.0025 0.5
0.0345916 0.0435916 -0.0025 0.5
0.00025 0.05575 0.0025 0.5
0.00025 0.05575 -0.0025 0.5
0.0345117 0.044 0.0025 0.5
0.0345117 0.044 -0.0025 0.5
0.0005 0.056 0.0025 0.5
0.0005 0.056 -0.0025 0.5
0.0344448 0.0444716 -3.09972e-20 0.5
0.0344455 0.0444455 -0.0025 0.5
0.0344455 0.0444455 0.0025 0.5
0.00025 0.05625 0.0025 0.5
0.00025 0.05625 -0.0025 0.5
0.0344336 0.0445664 -0.0025 0.5
0.0344336 0.0445664 0.0025 0.5
0.00025 0.0565 0 0.5
0.0344092 0.045 0.0025 0.5
0.0344092 0.045 -0.0025 0.5
0.00025 0.05675 0.0025 0.5
0.00025 0.05675 -0.0025 0.5
0.0342818 0.0453588 -5.4891e-21 0.5
0.0342883 0.0452883 -0.0025 0.5
0.0342883 0.0452883 0.0025 0.5
0.0005 0.057 0.0025 0.5
0.0005 0.057 -0.0025 0.5
0.0342417 0.0457583 -0.00129167 0.5
0.0342417 0.0457583 0.00129167 0.5
0.0342417 0.0457583 -0.0025 0.5
0.0342417 0.0457583 0.0025 0.5
0.00025 0.05725 0.0025 0.5
0.00025 0.05725 -0.0025 0.5
0.0342812 0.046 0.0025 0.5
0.0342812 0.046 -0.0025 0.5
0.0341643 0.0461643 -0.00167868 0.5
0.0341643 0.0461643 0.00167868 0.5
0.0341643 0.0461643 -0.0025 0.5
0.0341643 0.0461643 0.0025 0.5
0.00025 0.0575 0 0.5
0.034135 0.0465 -2.77026e-18 0.5
0.00025 0.05775 0.0025 0.5
0.00025 0.05775 -0.0025 0.5
0.0341019 0.0468981 0.00199068 0.5
0.0341019 0.0468981 -0.00199068 0.5
0.0341019 0.0468981 0.0025 0.5
0.0341019 0.0468981 -0.0025 0.5
0.0005 0.058 0.0025 0.5
0.0005 0.058 -0.0025 0.5
0.034147 0.047 0.0025 0.5
0.034147 0.047 -0.0025 0.5
0.0340747 0.0470747 0.0021265 0.5
0.0340747 0.0470747 -0.0021265 0.5
0.0340747 0.0470747 0.0025 0.5
0.0340747 0.0470747 -0.0025 0.5
0.00025 0.05825 0.0025 0.5
0.00025 0.05825 -0.0025 0.5
0.0340443 0.0475 2.89075e-18 0.5
0.00025 0.0585 8.67362e-19 0.5
0.00025 0.05875 0.0025 0.5
0.00025 0.05875 -0.0025 0.5
0.0340118 0.0479882 -0.00244088 0.5
0.0340118 0.0479882 0.00244088 0.5
0.0340118 0.0479882 0.0025 0.5
0.0340118 0.0479882 -0.0025 0.5
0.0340099 0.0480099 -0.00245032 0.5