0 	0 	0 	0
0.000446734 	3.28803e-06 	0.000179643 	-8.03642e-27
0.000893467 	6.57607e-06 	0.000359286 	-1.60728e-26
0.0013402 	9.40613e-06 	0.000443269 	-1.79523e-26
0.00178693 	1.18006e-05 	0.000436258 	-1.3975e-26
0.00223367 	1.41207e-05 	0.00042704 	-9.99578e-27
0.0026804 	1.3542e-05 	0.000331779 	-5.93658e-27
0.00312714 	1.29633e-05 	0.000236519 	-1.87738e-27
0.00357387 	5.82603e-06 	0.000139611 	0
0.0040206 	-6.95464e-06 	4.12859e-05 	0
0.00446734 	-2.11954e-05 	-5.43027e-05 	0
0.00491407 	-6.31788e-05 	-9.7902e-05 	0
0.0053608 	-0.000105162 	-0.000141501 	0
0.00580754 	-0.000172173 	-0.000142471 	0
0.00625427 	-0.00025865 	-0.000110284 	0
0.00670101 	-0.000349137 	-7.30428e-05 	-5.05025e-28
0.00714774 	-0.00048908 	2.654e-05 	-7.2387e-27
0.00759447 	-0.000629023 	0.000126123 	-1.39724e-26
0.00804121 	-0.000803417 	0.000254299 	-2.02775e-26
0.00848794 	-0.001002 	0.000402552 	-2.62816e-26
0.00893467 	-0.00120684 	0.000554148 	-3.1012e-26
0.00938141 	-0.00146798 	0.000735827 	-2.42783e-26
0.00982814 	-0.00172912 	0.000917506 	-1.75447e-26
0.0102749 	-0.00202961 	0.00111373 	-1.12578e-26
0.0107216 	-0.00235498 	0.00131916 	-5.25365e-27
0.0111683 	-0.00268793 	0.00152653 	-1.58373e-28
0.0116151 	-0.00307395 	0.00174741 	-1.42536e-27
0.0120618 	-0.00345996 	0.00196828 	-2.69234e-27
0.0125085 	-0.00387761 	0.00219213 	-3.4565e-27
0.0129553 	-0.00431325 	0.00241765 	-3.93474e-27
0.013402 	-0.00475364 	0.00264179 	-4.1512e-27
0.0138487 	-0.00522096 	0.00285809 	-2.88421e-27
0.0142955 	-0.00568827 	0.00307439 	-1.61723e-27
0.0147422 	-0.0061621 	0.00327476 	-8.72787e-28
0.0151889 	-0.00663924 	0.00346702 	-3.94547e-28
0.0156357 	-0.00711432 	0.00365284 	0
0.0160824 	-0.00757964 	0.00380827 	0
0.0165291 	-0.00804496 	0.0039637 	0
0.0169759 	-0.00848987 	0.00408797 	0
0.0174226 	-0.0089255 	0.00419807 	0
0.0178693 	-0.00935279 	0.00429844 	0
0.0183161 	-0.00974675 	0.00435989 	0
0.0187628 	-0.0101407 	0.00442133 	0
0.0192095 	-0.0105009 	0.00444909 	0
0.0196563 	-0.0108475 	0.00446325 	0
0.020103 	-0.0111833 	0.00446783 	0
0.0205497 	-0.011482 	0.00443946 	0
0.0209965 	-0.0117807 	0.00441108 	0
0.0214432 	-0.0120463 	0.00435612 	0
0.0218899 	-0.0123002 	0.0042917 	0
0.0223367 	-0.012544 	0.00421998 	1.1132e-27
0.0227834 	-0.0127577 	0.00412635 	5.56599e-27
0.0232302 	-0.0129714 	0.00403272 	1.00188e-26
0.0236769 	-0.0131583 	0.00392153 	1.47185e-26
0.0241236 	-0.0133368 	0.00380488 	1.94951e-26
0.0245704 	-0.0135068 	0.00368331 	2.17336e-26
0.0250171 	-0.0136544 	0.00354874 	1.72808e-26
0.0254638 	-0.013802 	0.00341417 	1.2828e-26
0.0259106 	-0.013928 	0.0032686 	1.64277e-26
0.0263573 	-0.0140482 	0.00312006 	2.22002e-26
0.026804 	-0.0141609 	0.0029682 	2.95274e-26
0.0272508 	-0.0142562 	0.0028086 	4.04821e-26
0.0276975 	-0.0143515 	0.00264901 	5.14368e-26
0.0281442 	-0.0144282 	0.00248217 	4.49197e-26
0.028591 	-0.0145006 	0.00231366 	3.43705e-26
0.0290377 	-0.0145659 	0.00214277 	2.36896e-26
0.0294844 	-0.0146168 	0.00196691 	1.27349e-26
0.0299312 	-0.0146676 	0.00179105 	1.78014e-27
0.0303779 	-0.0147014 	0.00161 	0
0.0308246 	-0.0147318 	0.00142794 	0
0.0312714 	-0.0147555 	0.00124401 	0
0.0317181 	-0.0147664 	0.00105661 	0
0.0321648 	-0.0147774 	0.000869207 	0
0.0326116 	-0.0147721 	0.000677769 	2.351e-26
0.0330583 	-0.0147642 	0.000485688 	5.07679e-26
0.033505 	-0.0147493 	0.000292063 	7.82052e-26
0.0339518 	-0.0147229 	9.58644e-05 	1.05941e-25
0.0343985 	-0.0146965 	-0.000100334 	1.33678e-25
0.0348452 	-0.0146537 	-0.000299717 	1.12607e-25
0.035292 	-0.014609 	-0.000499503 	8.53487e-26
0.0357387 	-0.0145567 	-0.000700474 	5.78994e-26
0.0361854 	-0.0144933 	-0.000903222 	3.01632e-26
0.0366322 	-0.01443 	-0.00110597 	2.42692e-27
0.0370789 	-0.0143491 	-0.00131061 	-6.20103e-27
0.0375256 	-0.0142665 	-0.00151542 	-1.29967e-26
0.0379724 	-0.0141754 	-0.00172056 	-1.98059e-26
0.0384191 	-0.0140728 	-0.00192613 	-2.66333e-26
0.0388658 	-0.0139701 	-0.0021317 	-3.34608e-26
0.0393126 	-0.0138472 	-0.00233618 	-2.75166e-26
0.0397593 	-0.0137231 	-0.00254058 	-2.07209e-26
0.040206 	-0.0135884 	-0.00274321 	-1.3911e-26
0.0406528 	-0.0134409 	-0.00294369 	-7.0835e-27
0.0410995 	-0.0132934 	-0.00314418 	-2.5603e-28
0.0415462 	-0.0131212 	-0.00333721 	0
0.041993 	-0.012948 	-0.00352996 	0
0.0424397 	-0.0127612 	-0.0037166 	0
0.0428864 	-0.0125594 	-0.00389647 	0
0.0433332 	-0.0123575 	-0.00407635 	0
0.0437799 	-0.012124 	-0.00423688 	-5.7979e-27
0.0442266 	-0.01189 	-0.00439717 	-1.16692e-26
0.0446734 	-0.011638 	-0.00454346 	-1.72739e-26
0.0451201 	-0.0113679 	-0.00467575 	-2.2612e-26
0.0455668 	-0.0110973 	-0.00480756 	-2.78101e-26
0.0460136 	-0.0107873 	-0.00490181 	-2.19388e-26
0.0464603 	-0.0104773 	-0.00499606 	-1.60675e-26
0.046907 	-0.0101446 	-0.00506448 	-1.04761e-26
0.0473538 	-0.00979146 	-0.00510954 	-5.13795e-27
0.0478005 	-0.00943667 	-0.00515234 	1.16577e-28
0.0482472 	-0.00903946 	-0.00513709 	3.2253e-27
0.048694 	-0.00864225 	-0.00512184 	6.33403e-27
0.0491407 	-0.00822239 	-0.0050684 	8.99362e-27
0.0495874 	-0.00778399 	-0.00498372 	1.12857e-26
0.0500342 	-0.00734356 	-0.00489443 	1.32403e-26
0.0504809 	-0.00687265 	-0.00473594 	1.01316e-26
0.0509276 	-0.00640174 	-0.00457745 	7.02283e-27
0.0513744 	-0.0059213 	-0.00437849 	5.83246e-27
0.0518211 	-0.00543382 	-0.00414964 	6.06002e-27
0.0522678 	-0.00494692 	-0.00391582 	6.38947e-27
0.0527146 	-0.0044661 	-0.00363031 	7.78156e-27
0.0531613 	-0.00398527 	-0.0033448 	9.17364e-27
0.053608 	-0.00352531 	-0.00303988 	8.21868e-27
0.0540548 	-0.00307926 	-0.002722 	5.69902e-27
0.0545015 	-0.00264024 	-0.00240404 	3.30621e-27
0.0549482 	-0.0022567 	-0.00208544 	1.91412e-27
0.055395 	-0.00187316 	-0.00176684 	5.22033e-28
0.0558417 	-0.00154139 	-0.00146789 	0
0.0562884 	-0.00124069 	-0.00118071 	0
0.0567352 	-0.000952347 	-0.000901253 	0
0.0571819 	-0.000741528 	-0.000670161 	0
0.0576286 	-0.00053071 	-0.000439068 	0
0.0580754 	-0.000373636 	-0.000252506 	0
0.0585221 	-0.000245501 	-8.99214e-05 	0
0.0589688 	-0.000128064 	6.12574e-05 	-4.79993e-29
0.0594156 	-6.57633e-05 	0.000153654 	-3.4338e-28
0.0598623 	-3.46252e-06 	0.000246051 	-6.3876e-28
0.060309 	2.78341e-05 	0.000293397 	-9.80328e-28
0.0607558 	4.42029e-05 	0.000319052 	-1.34413e-27
0.0612025 	5.53558e-05 	0.000332866 	-1.58434e-27
0.0616492 	4.39065e-05 	0.000295373 	-1.28896e-27
0.062096 	3.24571e-05 	0.000257879 	-9.9358e-28
0.0625427 	2.11752e-05 	0.000199976 	-6.50302e-28
0.0629894 	9.96501e-06 	0.000133327 	-2.86497e-28
0.0634362 	1.01992e-06 	7.39379e-05 	0
0.0638829 	4.68979e-07 	4.1457e-05 	0
0.0643296 	-8.19589e-08 	8.97611e-06 	0
0.0647764 	-2.3181e-07 	3.14235e-08 	0
0.0652231 	-2.29525e-07 	1.42714e-08 	0
0.0656698 	-2.32999e-07 	3.68134e-10 	-8.70538e-31
0.0661166 	-2.54966e-07 	-3.10495e-09 	-4.53596e-30
0.0665633 	-2.76933e-07 	-6.57803e-09 	-8.20138e-30
0.0670101 	-2.81691e-07 	-9.73841e-09 	-1.25194e-29
0.0674568 	-2.80713e-07 	-1.27946e-08 	-1.70549e-29
0.0679035 	-2.79733e-07 	-1.58051e-08 	-1.94377e-29
0.0683503 	-2.78748e-07 	-1.86873e-08 	-1.57722e-29
0.068797 	-2.77764e-07 	-2.15696e-08 	-1.21068e-29
0.0692437 	-2.76536e-07 	-2.44545e-08 	-7.76708e-30
0.0696905 	-2.75237e-07 	-2.73401e-08 	-3.23156e-30
0.0701372 	-2.73805e-07 	-3.02568e-08 	0
0.0705839 	-2.72047e-07 	-3.32503e-08 	0
0.0710307 	-2.70288e-07 	-3.62438e-08 	0
0.0714774 	-2.68108e-07 	-3.93656e-08 	-6.4732e-30
0.0719241 	-2.65821e-07 	-4.25195e-08 	-1.45647e-29
0.0723709 	-2.63359e-07 	-4.57308e-08 	-2.2923e-29
0.0728176 	-2.60511e-07 	-4.90684e-08 	-3.18681e-29
0.0732643 	-2.57663e-07 	-5.2406e-08 	-4.08133e-29
0.0737111 	-2.54333e-07 	-5.59037e-08 	-3.57032e-29
0.0741578 	-2.50902e-07 	-5.94354e-08 	-2.76117e-29
0.0746045 	-2.47269e-07 	-6.30352e-08 	-1.92321e-29
0.0750513 	-2.43241e-07 	-6.67687e-08 	-1.02869e-29
0.075498 	-2.39212e-07 	-7.05021e-08 	-1.34177e-30
0.0759447 	-2.34665e-07 	-7.44163e-08 	0
0.0763915 	-2.30027e-07 	-7.83623e-08 	0
0.0768382 	-2.25163e-07 	-8.23917e-08 	0
0.0772849 	-2.19904e-07 	-8.65676e-08 	0
0.0777317 	-2.14644e-07 	-9.07435e-08 	0
0.0781784 	-2.08833e-07 	-9.51436e-08 	0
0.0786251 	-2.02942e-07 	-9.95756e-08 	0
0.0790719 	-1.96803e-07 	-1.04121e-07 	0
0.0795186 	-1.90272e-07 	-1.08846e-07 	0
0.0799653 	-1.83741e-07 	-1.13571e-07 	0
0.0804121 	-1.76628e-07 	-1.18603e-07 	0
0.0808588 	-1.69451e-07 	-1.23669e-07 	0
0.0813055 	-1.62005e-07 	-1.28902e-07 	0
0.0817523 	-1.54179e-07 	-1.34373e-07 	0
0.082199 	-1.46353e-07 	-1.39844e-07 	0
0.0826457 	-1.37934e-07 	-1.45761e-07 	0
0.0830925 	-1.29468e-07 	-1.51714e-07 	0
0.0835392 	-1.2073e-07 	-1.57919e-07 	0
0.0839859 	-1.11645e-07 	-1.64449e-07 	0
0.0844327 	-1.0256e-07 	-1.70979e-07 	0
0.0848794 	-9.29319e-08 	-1.78161e-07 	0
0.0853261 	-8.32749e-08 	-1.85376e-07 	0
0.0857729 	-7.33903e-08 	-1.92964e-07 	0
0.0862196 	-6.32412e-08 	-2.00983e-07 	0
0.0866663 	-5.30921e-08 	-2.09003e-07 	0
0.0871131 	-4.25816e-08 	-2.17911e-07 	0
0.0875598 	-3.20618e-08 	-2.26842e-07 	0
0.0880065 	-2.14436e-08 	-1.86065e-07 	0
0.0884533 	-1.07218e-08 	-9.30326e-08 	0
0.0889 	-3.3634e-22 	-3.42467e-21 	0
