0 	0 	0 	0
0.000446734 	-1.5552e-05 	-0.000101297 	7.2144e-26
0.000893467 	-3.11039e-05 	-0.000202594 	1.44288e-25
0.0013402 	-4.95948e-05 	-0.000284391 	2.53101e-25
0.00178693 	-7.08812e-05 	-0.000347639 	3.96794e-25
0.00223367 	-9.18486e-05 	-0.000409647 	5.35105e-25
0.0026804 	-0.000100374 	-0.000423326 	4.63473e-25
0.00312714 	-0.0001089 	-0.000437005 	3.91842e-25
0.00357387 	-9.96805e-05 	-0.000418234 	2.43329e-25
0.0040206 	-7.51908e-05 	-0.000371541 	2.86609e-26
0.00446734 	-4.79488e-05 	-0.00032134 	-1.77024e-25
0.00491407 	3.15879e-05 	-0.000204467 	-2.12042e-25
0.0053608 	0.000111125 	-8.75953e-05 	-2.47059e-25
0.00580754 	0.000234218 	7.22051e-05 	-1.66013e-25
0.00625427 	0.000391188 	0.000265394 	5.30242e-27
0.00670101 	0.00055533 	0.000464086 	1.7637e-25
0.00714774 	0.000807929 	0.000730643 	3.4438e-25
0.00759447 	0.00106053 	0.000997201 	5.1239e-25
0.00804121 	0.00137244 	0.00129626 	5.22743e-25
0.00848794 	0.00172599 	0.00161813 	4.22402e-25
0.00893467 	0.00208836 	0.00194224 	3.2933e-25
0.00938141 	0.00253013 	0.0022865 	3.01687e-25
0.00982814 	0.00297189 	0.00263075 	2.74044e-25
0.0102749 	0.00345058 	0.0029644 	4.16447e-25
0.0107216 	0.00395263 	0.00329133 	6.6643e-25
0.0111683 	0.0044579 	0.00361161 	8.67444e-25
0.0116151 	0.00498567 	0.00388538 	7.25676e-25
0.0120618 	0.00551345 	0.00415915 	5.83908e-25
0.0125085 	0.0060369 	0.0043834 	2.32446e-25
0.0129553 	0.00655789 	0.00457948 	-2.38254e-25
0.013402 	0.00707412 	0.00476227 	-6.70645e-25
0.0138487 	0.00756339 	0.0048697 	-8.85952e-25
0.0142955 	0.00805266 	0.00497713 	-1.10126e-24
0.0147422 	0.00851057 	0.00502631 	-1.02014e-24
0.0151889 	0.00895249 	0.00504582 	-7.88015e-25
0.0156357 	0.00938486 	0.00505145 	-4.96687e-25
0.0160824 	0.00977212 	0.00499169 	7.37344e-26
0.0165291 	0.0101594 	0.00493193 	6.44156e-25
0.0169759 	0.0105082 	0.00482644 	8.14568e-25
0.0174226 	0.0108395 	0.00470016 	8.03158e-25
0.0178693 	0.0111602 	0.00456335 	7.30189e-25
0.0183161 	0.0114379 	0.0043844 	4.10981e-25
0.0187628 	0.0117157 	0.00420545 	9.17724e-26
0.0192095 	0.0119581 	0.00399827 	0
0.0196563 	0.0121862 	0.00377971 	0
0.020103 	0.0124042 	0.00355478 	-8.43772e-26
0.0205497 	0.0125871 	0.00330796 	-4.59387e-25
0.0209965 	0.0127699 	0.00306114 	-8.34397e-25
0.0214432 	0.0129223 	0.00280041 	-1.34769e-24
0.0218899 	0.0130638 	0.00253474 	-1.9102e-24
0.0223367 	0.0131957 	0.00226627 	-2.30384e-24
0.0227834 	0.0132989 	0.00198937 	-2.19083e-24
0.0232302 	0.013402 	0.00171247 	-2.07782e-24
0.0236769 	0.0134777 	0.00143169 	-1.37742e-24
0.0241236 	0.0135447 	0.00114971 	-4.94067e-25
0.0245704 	0.0136022 	0.000867723 	3.28197e-25
0.0250171 	0.0136345 	0.000585732 	9.89404e-25
0.0254638 	0.0136668 	0.000303742 	1.65061e-24
0.0259106 	0.0136721 	2.52056e-05 	1.69501e-24
0.0263573 	0.01367 	-0.000252398 	1.57296e-24
0.026804 	0.0136575 	-0.00052745 	1.42521e-24
0.0272508 	0.0136208 	-0.000796548 	1.21748e-24
0.0276975 	0.0135841 	-0.00106564 	1.00975e-24
0.0281442 	0.0135186 	-0.00132447 	1.03296e-24
0.028591 	0.0134465 	-0.00158091 	1.10946e-24
0.0290377 	0.0133625 	-0.00183185 	1.07767e-24
0.0294844 	0.0132538 	-0.00207133 	8.20991e-25
0.0299312 	0.0131452 	-0.00231081 	5.64309e-25
0.0303779 	0.013005 	-0.00253221 	-3.59343e-26
0.0308246 	0.0128586 	-0.0027501 	-7.02839e-25
0.0312714 	0.0126986 	-0.00295867 	-1.11351e-24
0.0317181 	0.0125133 	-0.00314994 	-1.0483e-24
0.0321648 	0.012328 	-0.00334121 	-9.83098e-25
0.0326116 	0.0121083 	-0.00350478 	-3.44887e-25
0.0330583 	0.011883 	-0.00366394 	3.84673e-25
0.033505 	0.0116425 	-0.00380882 	8.85979e-25
0.0339518 	0.0113765 	-0.00392987 	1.00686e-24
0.0343985 	0.0111105 	-0.00405093 	1.12775e-24
0.0348452 	0.0108079 	-0.00413246 	7.4577e-25
0.035292 	0.0105006 	-0.00420899 	3.00052e-25
0.0357387 	0.0101769 	-0.00426514 	3.48782e-26
0.0361854 	0.00982852 	-0.00429072 	4.05223e-26
0.0366322 	0.00948015 	-0.00431629 	4.61664e-26
0.0370789 	0.00909604 	-0.00429048 	3.46665e-25
0.0375256 	0.0087085 	-0.00425975 	6.75437e-25
0.0379724 	0.00830657 	-0.004204 	7.9514e-25
0.0384191 	0.00788516 	-0.00411441 	6.31986e-25
0.0388658 	0.00746376 	-0.00402482 	4.68832e-25
0.0393126 	0.00702024 	-0.00388225 	8.42027e-26
0.0397593 	0.00657525 	-0.00373616 	-3.15191e-25
0.040206 	0.00612682 	-0.00356858 	-5.44207e-25
0.0406528 	0.00567417 	-0.00337472 	-5.64983e-25
0.0410995 	0.00522152 	-0.00318087 	-5.85759e-25
0.0415462 	0.00478097 	-0.00295557 	-4.27623e-25
0.041993 	0.0043409 	-0.00272905 	-2.62517e-25
0.0424397 	0.00391686 	-0.00249629 	-1.53436e-25
0.0428864 	0.00351055 	-0.00225666 	-1.06278e-25
0.0433332 	0.00310424 	-0.00201703 	-5.91193e-26
0.0437799 	0.002749 	-0.00178578 	-4.54107e-26
0.0442266 	0.0023944 	-0.00155463 	-3.21256e-26
0.0446734 	0.0020716 	-0.00133902 	-2.03608e-26
0.0451201 	0.0017806 	-0.00113895 	-1.01164e-26
0.0455668 	0.00149046 	-0.000939572 	2.17492e-28
0.0460136 	0.00126828 	-0.00079438 	1.76169e-26
0.0464603 	0.0010461 	-0.000649188 	3.50163e-26
0.046907 	0.000859368 	-0.000543343 	6.48609e-26
0.0473538 	0.000704712 	-0.000473099 	1.05965e-25
0.0478005 	0.000552234 	-0.000405589 	1.45237e-25
0.0482472 	0.000455652 	-0.000408269 	1.37463e-25
0.048694 	0.000359071 	-0.00041095 	1.2969e-25
0.0491407 	0.000284383 	-0.000426869 	1.00936e-25
0.0495874 	0.000227609 	-0.00045362 	5.50164e-26
0.0500342 	0.000171605 	-0.000475571 	1.19086e-26
0.0504809 	0.000127146 	-0.000425517 	1.0974e-26
0.0509276 	8.26868e-05 	-0.000375463 	1.00394e-26
0.0513744 	4.97625e-05 	-0.000296095 	1.24107e-26
0.0518211 	2.53639e-05 	-0.000195061 	1.72254e-26
0.0522678 	3.00305e-06 	-9.92509e-05 	2.08584e-26
0.0527146 	1.89209e-06 	-5.79181e-05 	1.21674e-26
0.0531613 	7.81143e-07 	-1.65853e-05 	3.4764e-27
0.053608 	3.64196e-07 	-5.23322e-08 	0
0.0540548 	4.09921e-07 	-5.26225e-08 	0
0.0545015 	4.50261e-07 	-5.30908e-08 	0
0.0549482 	4.48119e-07 	-5.49628e-08 	0
0.055395 	4.45978e-07 	-5.68348e-08 	0
0.0558417 	4.43223e-07 	-5.84978e-08 	-1.6406e-29
0.0562884 	4.40101e-07 	-6.00354e-08 	-4.26556e-29
0.0567352 	4.36887e-07 	-6.15359e-08 	-7.05542e-29
0.0571819 	4.33095e-07 	-6.28034e-08 	-1.08797e-28
0.0576286 	4.29303e-07 	-6.40709e-08 	-1.47041e-28
0.0580754 	4.2522e-07 	-6.51944e-08 	-1.56957e-28
0.0585221 	4.20981e-07 	-6.62405e-08 	-1.51621e-28
0.0589688 	4.16695e-07 	-6.72574e-08 	-1.31454e-28
0.0594156 	4.12164e-07 	-6.81238e-08 	-3.48454e-29
0.0598623 	4.07633e-07 	-6.89902e-08 	6.17628e-29
0.060309 	4.02974e-07 	-6.97613e-08 	1.29624e-28
0.0607558 	3.98255e-07 	-7.04867e-08 	1.83645e-28
0.0612025 	3.93512e-07 	-7.11923e-08 	2.00964e-28
0.0616492 	3.88671e-07 	-7.1813e-08 	5.92415e-29
0.062096 	3.8383e-07 	-7.24337e-08 	-8.24807e-29
0.0625427 	3.78933e-07 	-7.30052e-08 	-2.18654e-28
0.0629894 	3.74012e-07 	-7.35555e-08 	-3.52448e-28
0.0634362 	3.69078e-07 	-7.40975e-08 	-4.6419e-28
0.0638829 	3.64099e-07 	-7.46091e-08 	-4.94206e-28
0.0643296 	3.59121e-07 	-7.51206e-08 	-5.24221e-28
0.0647764 	3.54108e-07 	-7.56248e-08 	-6.3527e-28
0.0652231 	3.49082e-07 	-7.61262e-08 	-7.77056e-28
0.0656698 	3.44046e-07 	-7.66313e-08 	-9.06464e-28
0.0661166 	3.38974e-07 	-7.71484e-08 	-9.96135e-28
0.0665633 	3.33902e-07 	-7.76654e-08 	-1.08581e-27
0.0670101 	3.28792e-07 	-7.82115e-08 	-8.13097e-28
0.0674568 	3.2367e-07 	-7.87674e-08 	-4.19595e-28
0.0679035 	3.18531e-07 	-7.93388e-08 	-3.19124e-29
0.0683503 	3.13348e-07 	-7.99541e-08 	3.39417e-28
0.068797 	3.08165e-07 	-8.05693e-08 	7.10747e-28
0.0692437 	3.02925e-07 	-8.12453e-08 	8.09298e-28
0.0696905 	2.97668e-07 	-8.1939e-08 	8.28656e-28
0.0701372 	2.92386e-07 	-8.26601e-08 	8.97339e-28
0.0705839 	2.8704e-07 	-8.34497e-08 	1.08826e-27
0.0710307 	2.81694e-07 	-8.42392e-08 	1.27918e-27
0.0714774 	2.76263e-07 	-8.51189e-08 	1.17683e-27
0.0719241 	2.70811e-07 	-8.60211e-08 	1.00117e-27
0.0723709 	2.65319e-07 	-8.69638e-08 	6.71226e-28
0.0728176 	2.59741e-07 	-8.79954e-08 	1.87077e-30
0.0732643 	2.54163e-07 	-8.9027e-08 	-6.67484e-28
0.0737111 	2.48465e-07 	-9.01797e-08 	-1.13646e-27
0.0741578 	2.42741e-07 	-9.13579e-08 	-1.56293e-27
0.0746045 	2.36961e-07 	-9.25919e-08 	-1.97201e-27
0.0750513 	2.3107e-07 	-9.39353e-08 	-2.34695e-27
0.075498 	2.25179e-07 	-9.52786e-08 	-2.72188e-27
0.0759447 	2.19127e-07 	-9.67797e-08 	-2.61733e-27
0.0763915 	2.13046e-07 	-9.83086e-08 	-2.42815e-27
0.0768382 	2.06889e-07 	-9.99132e-08 	-1.92641e-27
0.0772849 	2.00596e-07 	-1.01651e-07 	-8.74964e-28
0.0777317 	1.94304e-07 	-1.03389e-07 	1.76479e-28
0.0781784 	1.87805e-07 	-1.05333e-07 	9.67342e-28
0.0786251 	1.81277e-07 	-1.07307e-07 	1.72098e-27
0.0790719 	1.74649e-07 	-1.09385e-07 	2.24535e-27
0.0795186 	1.67863e-07 	-1.11627e-07 	2.40735e-27
0.0799653 	1.61076e-07 	-1.1387e-07 	2.56934e-27
0.0804121 	1.54039e-07 	-1.16389e-07 	2.36423e-27
0.0808588 	1.46974e-07 	-1.18939e-07 	2.11832e-27
0.0813055 	1.39786e-07 	-1.21634e-07 	1.64063e-27
0.0817523 	1.32423e-07 	-1.24538e-07 	8.32826e-28
0.082199 	1.25061e-07 	-1.27441e-07 	2.50239e-29
0.0826457 	1.17412e-07 	-1.30724e-07 	-6.80978e-28
0.0830925 	1.09741e-07 	-1.34038e-07 	-1.37873e-27
0.0835392 	1.01934e-07 	-1.37559e-07 	-1.7868e-27
0.0839859 	9.39513e-08 	-1.41349e-07 	-1.82245e-27
0.0844327 	8.59692e-08 	-1.45138e-07 	-1.85809e-27
0.0848794 	7.77049e-08 	-1.49452e-07 	-1.17594e-27
0.0853261 	6.94258e-08 	-1.53793e-07 	-4.56015e-28
0.0857729 	6.1026e-08 	-1.58426e-07 	-5.74941e-29
0.0862196 	5.24859e-08 	-1.634e-07 	-3.24996e-29
0.0866663 	4.39459e-08 	-1.68373e-07 	-7.50511e-30
0.0871131 	3.52134e-08 	-1.74036e-07 	-8.72054e-28
0.0875598 	2.64761e-08 	-1.79716e-07 	-1.75941e-27
0.0880065 	1.7687e-08 	-1.46836e-07 	-1.78025e-27
0.0884533 	8.84348e-09 	-7.3418e-08 	-8.90124e-28
0.0889 	2.63396e-22 	-5.02468e-21 	-7.24426e-41
