# f_l  POINT_DATA 1533
#  x  y  z  f_l
0.0402341 0.001665 7.24632e-21 0.5
0.0402512 0.00135591 -0.00139232 0.5
0.0402512 0.00135591 0.00139232 0.5
0.0402457 0.00197952 -0.00141677 0.5
0.0402457 0.00197952 0.00141677 0.5
0.0402512 0.00135591 0.0025 0.5
0.0402512 0.00135591 -0.0025 0.5
0.0402457 0.00197952 0.0025 0.5
0.0402457 0.00197952 -0.0025 0.5
0.0402798 0.00249452 -0.00126343 0.5
0.0402798 0.00249452 0.00126343 0.5
0.0402984 0.00294707 1.12356e-20 0.5
0.0403229 0.000792505 0.0025 0.5
0.0403229 0.000792505 -0.0025 0.5
0.0402798 0.00249452 0.0025 0.5
0.0402798 0.00249452 -0.0025 0.5
0.0403678 0.00111 0.0025 0.5
0.0403678 0.00111 -0.0025 0.5
0.040466 0.000523089 6.46938e-23 0.5
0.0403515 0.00222 0.0025 0.5
0.0403515 0.00222 -0.0025 0.5
0.0403022 0.0030331 0.0025 0.5
0.0403022 0.0030331 -0.0025 0.5
0.0404533 0.000447758 0.0025 0.5
0.0404533 0.000447758 -0.0025 0.5
0.0403663 0.00387826 9.90117e-22 0.5
0.0403563 0.00368087 0.0025 0.5
0.0403563 0.00368087 -0.0025 0.5
0.0404098 0.00333 0.0025 0.5
0.0404098 0.00333 -0.0025 0.5
0.0403765 0.00406891 0.0025 0.5
0.0403765 0.00406891 -0.0025 0.5
0.040668 0.000447758 0.0025 0.5
0.040668 0.000447758 -0.0025 0.5
0.0404779 0.00499126 9.64043e-20 0.5
0.0404781 0.00444 0.0025 0.5
0.0404781 0.00444 -0.0025 0.5
0.0404723 0.0049068 0.0025 0.5
0.0404723 0.0049068 -0.0025 0.5
0.0404836 0.00507198 0.0025 0.5
0.0404836 0.00507198 -0.0025 0.5
0.0405588 0.00555 0.0025 0.5
0.0405588 0.00555 -0.0025 0.5
0.0406323 0.00606296 6.03792e-21 0.5
0.0406326 0.00603315 0.0025 0.5
0.0406326 0.00603315 -0.0025 0.5
0.0406445 0.00618881 0.0025 0.5
0.0406445 0.00618881 -0.0025 0.5
0.0411163 0.000668477 -0.0025 0.5
0.0411163 0.000668477 0.0025 0.5
0.0406503 0.00666 0.0025 0.5
0.0406503 0.00666 -0.0025 0.5
0.0407829 0.00722573 -6.85298e-22 0.5
0.0407673 0.00700852 0.0025 0.5
0.0407673 0.00700852 -0.0025 0.5
0.0413941 0.0002775 0.0025 0.5
0.0413941 0.0002775 -0.0025 0.5
0.0407996 0.00745367 0.0025 0.5
0.0407996 0.00745367 -0.0025 0.5
0.0407504 0.00777 0.0025 0.5
0.0407504 0.00777 -0.0025 0.5
0.0416719 0.0002775 0 0.5
0.0408768 0.00800919 0.00142255 0.5
0.0408768 0.00800919 -0.00142255 0.5
0.0408768 0.00800919 0.0025 0.5
0.0408768 0.00800919 -0.0025 0.5
0.0408973 0.008325 -1.50299e-21 0.5
0.0409202 0.00868416 -0.00161782 0.5
0.0409202 0.00868416 0.00161782 0.5
0.0408529 0.00888 0.0025 0.5
0.0408529 0.00888 -0.0025 0.5
0.0409202 0.00868416 0.0025 0.5
0.0409202 0.00868416 -0.0025 0.5
0.0409621 0.009034 0.00180633 0.5
0.0409621 0.009034 -0.00180633 0.5
0.0409621 0.009034 0.0025 0.5
0.0409621 0.009034 -0.0025 0.5
0.0419497 0.0002775 0.0025 0.5
0.0419497 0.0002775 -0.0025 0.5
0.0409847 0.009435 4.43497e-20 0.5
0.0409508 0.00999 0.0025 0.5
0.0409508 0.00999 -0.0025 0.5
0.0410083 0.00988215 -0.00201418 0.5
0.0410083 0.00988215 0.00201418 0.5
0.0410083 0.00988215 0.0025 0.5
0.0410083 0.00988215 -0.0025 0.5
0.0410279 0.0100783 0.00210244 0.5
0.0410279 0.0100783 -0.00210244 0.5
0.0422275 0.000555 -0.0025 0.5
0.0422275 0.000555 0.0025 0.5
0.0410279 0.0100783 0.0025 0.5
0.0410279 0.0100783 -0.0025 0.5
0.0410501 0.010545 -2.77975e-20 0.5
0.0425053 0.0002775 0.0025 0.5
0.0425053 0.0002775 -0.0025 0.5
0.0411 0.0111 -0.0025 0.5
0.0411 0.0111 0.0025 0.5
0.0411067 0.0110905 0.00245704 0.5
0.0411067 0.0110905 -0.00245704 0.5
0.0411067 0.0110905 0.0025 0.5
0.0411067 0.0110905 -0.0025 0.5
0.041108 0.0111083 0.00246281 0.5
0.041108 0.0111083 -0.00246281 0.5
0.041108 0.0111083 0.0025 0.5
0.041108 0.0111083 -0.0025 0.5
0.0411163 0.0111679 -0.0025 0.5
0.0411163 0.0111679 0.0025 0.5
0.0427831 0.0002775 -6.27343e-20 0.5
0.0411688 0.011655 -1.34961e-19 0.5
0.0412379 0.0120885 0.00195257 0.5
0.0412379 0.0120885 -0.00195257 0.5
0.0412379 0.0120885 -0.0025 0.5
0.0412379 0.0120885 0.0025 0.5
0.0430609 0.0002775 0.0025 0.5
0.0430609 0.0002775 -0.0025 0.5
0.0413577 0.01221 -0.0025 0.5
0.0413577 0.01221 0.0025 0.5
0.0413492 0.0124427 -0.00145164 0.5
0.0413492 0.0124427 0.00145164 0.5
0.0413492 0.0124427 0.0025 0.5
0.0413492 0.0124427 -0.0025 0.5
0.0414419 0.0129097 -4.81556e-19 0.5
0.0433388 0.000555 -0.0025 0.5
0.0433388 0.000555 0.0025 0.5
0.0414546 0.012982 0.0025 0.5
0.0414546 0.012982 -0.0025 0.5
0.0436166 0.0002775 0.0025 0.5
0.0436166 0.0002775 -0.0025 0.5
0.0416252 0.01332 0.0025 0.5
0.0416252 0.01332 -0.0025 0.5
0.0438944 0.0002775 -5.5916e-20 0.5
0.0417943 0.0138496 5.09323e-19 0.5
0.0417833 0.0137637 -0.0025 0.5
0.0417833 0.0137637 0.0025 0.5
0.0418314 0.0140344 -0.0025 0.5
0.0418314 0.0140344 0.0025 0.5
0.0441722 0.0002775 0.0025 0.5
0.0441722 0.0002775 -0.0025 0.5
0.0418542 0.01443 -0.0025 0.5
0.0418542 0.01443 0.0025 0.5
0.0420097 0.0146476 0.00151994 0.5
0.0420097 0.0146476 -0.00151994 0.5
0.04445 0.000555 0.0025 0.5
0.04445 0.000555 -0.0025 0.5
0.0420097 0.0146476 0.0025 0.5
0.0420097 0.0146476 -0.0025 0.5
0.0420525 0.014985 -1.70176e-20 0.5
0.0447278 0.0002775 0.0025 0.5
0.0447278 0.0002775 -0.0025 0.5
0.0420959 0.0154085 -0.00190783 0.5
0.0420959 0.0154085 0.00190783 0.5
0.0420959 0.0154085 0.0025 0.5
0.0420959 0.0154085 -0.0025 0.5
0.0420478 0.01554 0.0025 0.5
0.0420478 0.01554 -0.0025 0.5
0.0421371 0.0156303 0.00209326 0.5
0.0421371 0.0156303 -0.00209326 0.5
0.0450056 0.0002775 0 0.5
0.0421371 0.0156303 0.0025 0.5
0.0421371 0.0156303 -0.0025 0.5
0.0421766 0.016095 -1.01865e-19 0.5
0.0422275 0.0161773 -0.0025 0.5
0.0422275 0.0161773 0.0025 0.5
0.0452834 0.0002775 0.0025 0.5
0.0452834 0.0002775 -0.0025 0.5
0.042287 0.0165906 -0.00223226 0.5
0.042287 0.0165906 0.00223226 0.5
0.042287 0.0165906 0.0025 0.5
0.042287 0.0165906 -0.0025 0.5
0.0423672 0.01665 0.0025 0.5
0.0423672 0.01665 -0.0025 0.5
0.0423734 0.0167958 -0.00184335 0.5
0.0423734 0.0167958 0.00184335 0.5
0.0455612 0.000555 -0.0025 0.5
0.0455612 0.000555 0.0025 0.5
0.0423734 0.0167958 0.0025 0.5
0.0423734 0.0167958 -0.0025 0.5
0.0458391 0.0002775 0.0025 0.5
0.0458391 0.0002775 -0.0025 0.5
0.0425378 0.0173558 1.23396e-20 0.5
0.0425567 0.0174311 0.0025 0.5
0.0425567 0.0174311 -0.0025 0.5
0.0461169 0.0002775 0 0.5
0.0427738 0.01776 0.0025 0.5
0.0427738 0.01776 -0.0025 0.5
0.0463947 0.0002775 0.0025 0.5
0.0463947 0.0002775 -0.0025 0.5
0.042968 0.0180854 -1.16519e-20 0.5
0.0429945 0.0181038 0.0025 0.5
0.0429945 0.0181038 -0.0025 0.5
0.0466725 0.000555 -0.0025 0.5
0.0466725 0.000555 0.0025 0.5
0.0431036 0.0186351 -0.00144185 0.5
0.0431036 0.0186351 0.00144185 0.5
0.0469503 0.0002775 0.0025 0.5
0.0469503 0.0002775 -0.0025 0.5
0.0431036 0.0186351 0.0025 0.5
0.0431036 0.0186351 -0.0025 0.5
0.0430851 0.01887 0.0025 0.5
0.0430851 0.01887 -0.0025 0.5
0.0472281 0.0002775 -1.94461e-21 0.5
0.0432124 0.0189962 0.00193171 0.5
0.0432124 0.0189962 -0.00193171 0.5
0.0432124 0.0189962 0.0025 0.5
0.0432124 0.0189962 -0.0025 0.5
0.0432686 0.019425 -6.9269e-20 0.5
0.0475059 0.0002775 0.0025 0.5
0.0475059 0.0002775 -0.0025 0.5
0.0433388 0.0195984 -0.0025 0.5
0.0433388 0.0195984 0.0025 0.5
0.0433981 0.0199207 0.00223296 0.5
0.0433981 0.0199207 -0.00223296 0.5
0.0433981 0.0199207 0.0025 0.5
0.0433981 0.0199207 -0.0025 0.5
0.0477837 0.000555 -0.0025 0.5
0.0477837 0.000555 0.0025 0.5
0.0434801 0.01998 -0.0025 0.5
0.0434801 0.01998 0.0025 0.5
0.0435041 0.0201452 -0.00175596 0.5
0.0435041 0.0201452 0.00175596 0.5
0.0435041 0.0201452 0.0025 0.5
0.0435041 0.0201452 -0.0025 0.5
0.0480616 0.0002775 0.0025 0.5
0.0480616 0.0002775 -0.0025 0.5
0.0483394 0.0002775 0 0.5
0.0437251 0.0207358 -3.0095e-19 0.5
0.0437023 0.0207269 -0.0025 0.5
0.0437023 0.0207269 0.0025 0.5
0.0486172 0.0002775 0.0025 0.5
0.0486172 0.0002775 -0.0025 0.5
0.0439347 0.02109 0.0025 0.5
0.0439347 0.02109 -0.0025 0.5
0.048895 0.000555 -0.0025 0.5
0.048895 0.000555 0.0025 0.5
0.044186 0.0214657 7.25384e-19 0.5
0.0441636 0.0213761 0.0025 0.5
0.0441636 0.0213761 -0.0025 0.5
0.0491728 0.0002775 0.0025 0.5
0.0491728 0.0002775 -0.0025 0.5
0.0494506 0.0002775 0 0.5
0.0442945 0.0220447 0.00180043 0.5
0.0442945 0.0220447 -0.00180043 0.5
0.0442945 0.0220447 0.0025 0.5
0.0442945 0.0220447 -0.0025 0.5
0.0442625 0.0222 0.0025 0.5
0.0442625 0.0222 -0.0025 0.5
0.0443615 0.0222884 0.00210175 0.5
0.0443615 0.0222884 -0.00210175 0.5
0.0443615 0.0222884 0.0025 0.5
0.0443615 0.0222884 -0.0025 0.5
0.0497284 0.0002775 0.0025 0.5
0.0497284 0.0002775 -0.0025 0.5
0.0444179 0.022755 3.75104e-19 0.5
0.04445 0.0226877 0.0025 0.5
0.04445 0.0226877 -0.0025 0.5
0.0500063 0.000555 -0.0025 0.5
0.0500063 0.000555 0.0025 0.5
0.0445484 0.0232117 0.00205705 0.5
0.0445484 0.0232117 -0.00205705 0.5
0.0445484 0.0232117 0.0025 0.5
0.0445484 0.0232117 -0.0025 0.5
0.0502841 0.0002775 0.0025 0.5
0.0502841 0.0002775 -0.0025 0.5
0.044696 0.02331 -0.0025 0.5
0.044696 0.02331 0.0025 0.5
0.0505619 0.0002775 1.91847e-21 0.5
0.0508397 0.0002775 0.0025 0.5
0.0508397 0.0002775 -0.0025 0.5
0.04497 0.0238597 7.31836e-19 0.5
0.0449391 0.0237985 -0.0025 0.5
0.0449391 0.0237985 0.0025 0.5
0.0449821 0.0238885 -0.0025 0.5
0.0449821 0.0238885 0.0025 0.5
0.0511175 0.000555 -0.0025 0.5
0.0511175 0.000555 0.0025 0.5
0.0451873 0.02442 -0.0025 0.5
0.0451873 0.02442 0.0025 0.5
0.0513953 0.0002775 0.0025 0.5
0.0513953 0.0002775 -0.0025 0.5
0.0453779 0.0246032 0.00167492 0.5
0.0453779 0.0246032 -0.00167492 0.5
0.0516731 0.0002775 0 0.5
0.0453779 0.0246032 0.0025 0.5
0.0453779 0.0246032 -0.0025 0.5
0.0454567 0.024975 -1.54855e-18 0.5
0.0519509 0.0002775 0.0025 0.5
0.0519509 0.0002775 -0.0025 0.5
0.0455122 0.025481 -0.00227944 0.5
0.0455122 0.025481 0.00227944 0.5
0.0455122 0.025481 0.0025 0.5
0.0455122 0.025481 -0.0025 0.5
0.0454868 0.02553 -0.0025 0.5
0.0454868 0.02553 0.0025 0.5
0.0455268 0.0255644 0.00234499 0.5
0.0455268 0.0255644 -0.00234499 0.5
0.0455268 0.0255644 0.0025 0.5
0.0455268 0.0255644 -0.0025 0.5
0.0522288 0.000555 -0.0025 0.5
0.0522288 0.000555 0.0025 0.5
0.0455612 0.0257198 0.0025 0.5
0.0455612 0.0257198 -0.0025 0.5
0.0455762 0.026085 -7.89588e-20 0.5
0.0525066 0.0002775 0.0025 0.5
0.0525066 0.0002775 -0.0025 0.5
0.0527844 0.0002775 0 0.5
0.0457017 0.0264997 -0.00186809 0.5
0.0457017 0.0264997 0.00186809 0.5
0.0457017 0.0264997 -0.0025 0.5
0.0457017 0.0264997 0.0025 0.5
0.0530622 0.0002775 0.0025 0.5
0.0530622 0.0002775 -0.0025 0.5
0.0459174 0.02664 0.0025 0.5
0.0459174 0.02664 -0.0025 0.5
0.05334 0.000555 -0.0025 0.5
0.05334 0.000555 0.0025 0.5
0.0462573 0.0270548 0.0025 0.5
0.0462573 0.0270548 -0.0025 0.5
0.0536178 0.0002775 -0.0025 0.5
0.0536178 0.0002775 0.0025 0.5
0.0463023 0.0271984 -2.90667e-21 0.5
0.0538956 0.0002775 0 0.5
0.0463942 0.0274721 0.0025 0.5
0.0463942 0.0274721 -0.0025 0.5
0.0464164 0.02775 0.0025 0.5
0.0464164 0.02775 -0.0025 0.5
0.0541734 0.0002775 0.0025 0.5
0.0541734 0.0002775 -0.0025 0.5
0.0465538 0.0278686 0.00196599 0.5
0.0465538 0.0278686 -0.00196599 0.5
0.0465538 0.0278686 0.0025 0.5
0.0465538 0.0278686 -0.0025 0.5
0.0544513 0.000555 -0.0025 0.5
0.0544513 0.000555 0.0025 0.5
0.0466269 0.028305 5.7955e-22 0.5
0.0547291 0.0002775 0.0025 0.5
0.0547291 0.0002775 -0.0025 0.5
0.0466725 0.0285852 0.0025 0.5
0.0466725 0.0285852 -0.0025 0.5
0.0467117 0.0288209 -0.00232377 0.5
0.0467117 0.0288209 0.00232377 0.5
0.0467117 0.0288209 0.0025 0.5
0.0467117 0.0288209 -0.0025 0.5
0.0467601 0.02886 -0.0025 0.5
0.0467601 0.02886 0.0025 0.5
0.0550069 0.0002775 -5.58287e-21 0.5
0.0467404 0.0289278 0.00219466 0.5
0.0467404 0.0289278 -0.00219466 0.5
0.0467404 0.0289278 0.0025 0.5
0.0467404 0.0289278 -0.0025 0.5
0.0468361 0.029415 1.62307e-19 0.5
0.0552847 0.0002775 0.0025 0.5
0.0552847 0.0002775 -0.0025 0.5
0.0469337 0.0297091 -0.0013248 0.5
0.0469337 0.0297091 0.0013248 0.5
0.0469337 0.0297091 0.0025 0.5
0.0469337 0.0297091 -0.0025 0.5
0.0555625 0.000555 -0.0025 0.5
0.0555625 0.000555 0.0025 0.5
0.0558403 0.0002775 0.0025 0.5
0.0558403 0.0002775 -0.0025 0.5
0.0472098 0.02997 0.0025 0.5
0.0472098 0.02997 -0.0025 0.5
0.0561181 0.0002775 0 0.5
0.0474664 0.0302604 1.94704e-20 0.5
0.0474956 0.0302579 0.0025 0.5
0.0474956 0.0302579 -0.0025 0.5
0.0563959 0.0002775 0.0025 0.5
0.0563959 0.0002775 -0.0025 0.5
0.0566738 0.000555 -0.0025 0.5
0.0566738 0.000555 0.0025 0.5
0.0476533 0.0309497 0.00191317 0.5
0.0476533 0.0309497 -0.00191317 0.5
0.0476533 0.0309497 0.0025 0.5
0.0476533 0.0309497 -0.0025 0.5
0.0476204 0.03108 0.0025 0.5
0.0476204 0.03108 -0.0025 0.5
0.0569516 0.0002775 0.0025 0.5
0.0569516 0.0002775 -0.0025 0.5
0.0477081 0.0311556 0.00215966 0.5
0.0477081 0.0311556 -0.00215966 0.5
0.0477081 0.0311556 0.0025 0.5
0.0477081 0.0311556 -0.0025 0.5
0.0572294 0.0002775 0 0.5
0.0477644 0.031635 6.75328e-19 0.5
0.0477838 0.0315753 -0.0025 0.5
0.0477838 0.0315753 0.0025 0.5
0.0575072 0.0002775 0.0025 0.5
0.0575072 0.0002775 -0.0025 0.5
0.0478695 0.0321044 -0.00211428 0.5
0.0478695 0.0321044 0.00211428 0.5
0.0478695 0.0321044 0.0025 0.5
0.0478695 0.0321044 -0.0025 0.5
0.0479899 0.03219 0.0025 0.5
0.0479899 0.03219 -0.0025 0.5
0.057785 0.000555 -0.0025 0.5
0.057785 0.000555 0.0025 0.5
0.0480467 0.0324527 -0.00131681 0.5
0.0480467 0.0324527 0.00131681 0.5
0.0480467 0.0324527 0.0025 0.5
0.0480467 0.0324527 -0.0025 0.5
0.0580628 0.0002775 0.0025 0.5
0.0580628 0.0002775 -0.0025 0.5
0.0583406 0.0002775 0 0.5
0.0482146 0.0328848 -3.65577e-20 0.5
0.0481991 0.0328852 0.0025 0.5
0.0481991 0.0328852 -0.0025 0.5
0.0586184 0.0002775 0.0025 0.5
0.0586184 0.0002775 -0.0025 0.5
0.0484516 0.0333 0.0025 0.5
0.0484516 0.0333 -0.0025 0.5
0.0588963 0.000555 -0.0025 0.5
0.0588963 0.000555 0.0025 0.5
0.0486746 0.0335201 0.00150835 0.5
0.0486746 0.0335201 -0.00150835 0.5
0.0486746 0.0335201 0.0025 0.5
0.0486746 0.0335201 -0.0025 0.5
0.0591741 0.0002775 0.0025 0.5
0.0591741 0.0002775 -0.0025 0.5
0.0487591 0.033855 2.49446e-21 0.5
0.0594519 0.0002775 -7.45167e-21 0.5
0.0488121 0.0343272 -0.00212702 0.5
0.0488121 0.0343272 0.00212702 0.5
0.0488121 0.0343272 0.0025 0.5
0.0488121 0.0343272 -0.0025 0.5
0.0487767 0.03441 0.0025 0.5
0.0487767 0.03441 -0.0025 0.5
0.0597297 0.0002775 0.0025 0.5
0.0597297 0.0002775 -0.0025 0.5
0.0488399 0.034465 0.00225221 0.5
0.0488399 0.034465 -0.00225221 0.5
0.0488399 0.034465 0.0025 0.5
0.0488399 0.034465 -0.0025 0.5
0.0600075 0.000555 -0.0025 0.5
0.0600075 0.000555 0.0025 0.5
0.0488858 0.034965 0 0.5
0.048895 0.0350674 0.0025 0.5
0.048895 0.0350674 -0.0025 0.5
0.0602853 0.0002775 0.0025 0.5
0.0602853 0.0002775 -0.0025 0.5
0.0489329 0.0354821 -0.00232932 0.5
0.0489329 0.0354821 0.00232932 0.5
0.0489329 0.0354821 0.0025 0.5
0.0489329 0.0354821 -0.0025 0.5
0.0489495 0.0355744 -0.00225494 0.5
0.0489495 0.0355744 0.00225494 0.5
0.0489771 0.03552 0.0025 0.5
0.0489771 0.03552 -0.0025 0.5
0.0489495 0.0355744 0.0025 0.5
0.0489495 0.0355744 -0.0025 0.5
0.0605631 0.0002775 -9.93434e-23 0.5
0.0490031 0.036075 0 0.5
0.0608409 0.0002775 0.0025 0.5
0.0608409 0.0002775 -0.0025 0.5
0.0491066 0.0364186 -0.00154788 0.5
0.0491066 0.0364186 0.00154788 0.5
0.0611187 0.000555 -0.0025 0.5
0.0611187 0.000555 0.0025 0.5
0.0491066 0.0364186 0.0025 0.5
0.0491066 0.0364186 -0.0025 0.5
0.0613966 0.0002775 -0.0025 0.5
0.0613966 0.0002775 0.0025 0.5
0.0493559 0.03663 0.0025 0.5
0.0493559 0.03663 -0.0025 0.5
0.0616744 0.0002775 0 0.5
0.0496313 0.0369896 0 0.5
0.0496522 0.0369836 0.0025 0.5
0.0496522 0.0369836 -0.0025 0.5
0.0619522 0.0002775 -0.0025 0.5
0.0619522 0.0002775 0.0025 0.5
0.06223 0.000555 -0.0025 0.5
0.06223 0.000555 0.0025 0.5
0.0497952 0.0375292 -0.0015503 0.5
0.0497952 0.0375292 0.0015503 0.5
0.0497952 0.0375292 0.0025 0.5
0.0497952 0.0375292 -0.0025 0.5
0.0497794 0.03774 0.0025 0.5
0.0497794 0.03774 -0.0025 0.5
0.0625078 0.0002775 0.0025 0.5
0.0625078 0.0002775 -0.0025 0.5
0.0498987 0.0378474 0.002016 0.5
0.0498987 0.0378474 -0.002016 0.5
0.0498987 0.0378474 -0.0025 0.5
0.0498987 0.0378474 0.0025 0.5
0.0627856 0.0002775 3.76374e-21 0.5
0.0499613 0.038295 2.68517e-20 0.5
0.0630634 0.0002775 -0.0025 0.5
0.0630634 0.0002775 0.0025 0.5
0.0499828 0.0388266 -0.00239457 0.5
0.0499828 0.0388266 0.00239457 0.5
0.0499828 0.0388266 0.0025 0.5
0.0499828 0.0388266 -0.0025 0.5
0.0499646 0.03885 0.0025 0.5
0.0499646 0.03885 -0.0025 0.5
0.0499862 0.03887 0.00240979 0.5
0.0499862 0.03887 -0.00240979 0.5
0.0499862 0.03887 0.0025 0.5
0.0499862 0.03887 -0.0025 0.5
0.0633413 0.000555 -0.0025 0.5
0.0633413 0.000555 0.0025 0.5
0.0500063 0.0392254 -0.0025 0.5
0.0500063 0.0392254 0.0025 0.5
0.0500063 0.039405 0 0.5
0.0636191 0.0002775 0.0025 0.5
0.0636191 0.0002775 -0.0025 0.5
0.0638969 0.0002775 -5.95927e-22 0.5
0.0500442 0.0399221 -0.00232935 0.5
0.0500442 0.0399221 0.00232935 0.5
0.0500442 0.0399221 0.0025 0.5
0.0500442 0.0399221 -0.0025 0.5
0.0500877 0.03996 0.0025 0.5
0.0500877 0.03996 -0.0025 0.5
0.0500584 0.0400121 -0.00226526 0.5
0.0500584 0.0400121 0.00226526 0.5
0.0500584 0.0400121 0.0025 0.5
0.0500584 0.0400121 -0.0025 0.5
0.0641747 0.0002775 0.0025 0.5
0.0641747 0.0002775 -0.0025 0.5
0.0501016 0.040515 -2.05766e-20 0.5
0.0644525 0.000555 -0.0025 0.5
0.0644525 0.000555 0.0025 0.5
0.0501926 0.0408839 -0.0016616 0.5
0.0501926 0.0408839 0.0016616 0.5
0.0647303 0.0002775 0.0025 0.5
0.0647303 0.0002775 -0.0025 0.5
0.0501926 0.0408839 0.0025 0.5
0.0501926 0.0408839 -0.0025 0.5
0.0650081 0.0002775 0 0.5
0.0504026 0.04107 -0.0025 0.5
0.0504026 0.04107 0.0025 0.5
0.0652859 0.0002775 0.0025 0.5
0.0652859 0.0002775 -0.0025 0.5
0.0506575 0.0415294 0.0025 0.5
0.0506575 0.0415294 -0.0025 0.5
0.0506801 0.0416199 3.90878e-22 0.5
0.0655638 0.000555 -0.0025 0.5
0.0655638 0.000555 0.0025 0.5
0.0507305 0.0417935 0.0025 0.5
0.0507305 0.0417935 -0.0025 0.5
0.0658416 0.0002775 0.0025 0.5
0.0658416 0.0002775 -0.0025 0.5
0.0507763 0.04218 0.0025 0.5
0.0507763 0.04218 -0.0025 0.5
0.0661194 0.0002775 -1.81913e-21 0.5
0.050937 0.0423603 0.0016878 0.5
0.050937 0.0423603 -0.0016878 0.5
0.050937 0.0423603 0.0025 0.5
0.050937 0.0423603 -0.0025 0.5
0.0663972 0.0002775 0.0025 0.5
0.0663972 0.0002775 -0.0025 0.5
0.0509947 0.042735 0 0.5
0.066675 0.000555 -0.0025 0.5
0.066675 0.000555 0.0025 0.5
0.0510348 0.0432074 -0.00212776 0.5
0.0510348 0.0432074 0.00212776 0.5
0.0510348 0.0432074 0.0025 0.5
0.0510348 0.0432074 -0.0025 0.5
0.0509935 0.04329 0.0025 0.5
0.0509935 0.04329 -0.0025 0.5
0.0669528 0.0002775 0.0025 0.5
0.0669528 0.0002775 -0.0025 0.5
0.0510571 0.0433503 -0.00222831 0.5
0.0510571 0.0433503 0.00222831 0.5
0.0510571 0.0433503 0.0025 0.5
0.0510571 0.0433503 -0.0025 0.5
0.0672306 0.0002775 9.10876e-20 0.5
0.051093 0.043845 -1.62672e-19 0.5
0.0675084 0.0002775 0.0025 0.5
0.0675084 0.0002775 -0.0025 0.5
0.051105 0.0443875 -0.00244359 0.5
0.051105 0.0443875 0.00244359 0.5
0.051094 0.0444 0.0025 0.5
0.051094 0.0444 -0.0025 0.5
0.051105 0.0443875 0.0025 0.5
0.051105 0.0443875 -0.0025 0.5
0.051106 0.0444115 0.00244826 0.5
0.051106 0.0444115 -0.00244826 0.5
0.051106 0.0444115 0.0025 0.5
0.051106 0.0444115 -0.0025 0.5
0.0677863 0.000555 -0.0025 0.5
0.0677863 0.000555 0.0025 0.5
0.0511175 0.044955 -2.48412e-20 0.5
0.0680641 0.0002775 0.0025 0.5
0.0680641 0.0002775 -0.0025 0.5
0.0683419 0.0002775 1.14121e-19 0.5
0.0511175 0.04551 -0.0025 0.5
0.0511175 0.04551 0.0025 0.5
0.0686197 0.0002775 0.0025 0.5
0.0686197 0.0002775 -0.0025 0.5
0.0511175 0.046065 0 0.5
0.0688975 0.000555 -0.0025 0.5
0.0688975 0.000555 0.0025 0.5
0.0691753 0.0002775 0.0025 0.5
0.0691753 0.0002775 -0.0025 0.5
0.0511177 0.0466198 -0.00249927 0.5
0.0511177 0.0466198 0.00249927 0.5
0.0511177 0.0466198 0.0025 0.5
0.0511177 0.0466198 -0.0025 0.5
0.0511177 0.0466202 -0.00249927 0.5
0.0511177 0.0466202 0.00249927 0.5
0.0511177 0.0466202 0.0025 0.5
0.0511177 0.0466202 -0.0025 0.5
0.0511178 0.04662 0.0025 0.5
0.0511178 0.04662 -0.0025 0.5
0.0694531 0.0002775 9.36031e-20 0.5
0.0511178 0.047175 0 0.5
0.0697309 0.0002775 0.0025 0.5
0.0697309 0.0002775 -0.0025 0.5
0.0511709 0.0476766 -0.00225958 0.5
0.0511709 0.0476766 0.00225958 0.5
0.0511709 0.0476766 0.0025 0.5
0.0511709 0.0476766 -0.0025 0.5
0.0700088 0.000555 -0.0025 0.5
0.0700088 0.000555 0.0025 0.5
0.0512356 0.04773 0.0025 0.5
0.0512356 0.04773 -0.0025 0.5
0.051204 0.0478164 -0.00211062 0.5
0.051204 0.0478164 0.00211062 0.5
0.051204 0.0478164 0.0025 0.5
0.051204 0.0478164 -0.0025 0.5
0.0702866 0.0002775 0.0025 0.5
0.0702866 0.0002775 -0.0025 0.5
0.051267 0.048285 -9.07472e-20 0.5
0.0705644 0.0002775 2.66209e-19 0.5
0.0512962 0.0486615 -0.00169601 0.5
0.0512962 0.0486615 0.00169601 0.5
0.0512962 0.0486615 -0.0025 0.5
0.0512962 0.0486615 0.0025 0.5
0.0708422 0.0002775 0.0025 0.5
0.0708422 0.0002775 -0.0025 0.5
0.051421 0.04884 0.0025 0.5
0.051421 0.04884 -0.0025 0.5
0.0513684 0.0490907 -0.00137094 0.5
0.0513684 0.0490907 0.00137094 0.5
0.0513684 0.0490907 0.0025 0.5
0.0513684 0.0490907 -0.0025 0.5
0.07112 0.000555 -0.0025 0.5
0.07112 0.000555 0.0025 0.5
0.0514064 0.0495693 0 0.5
0.0713978 0.0002775 0.0025 0.5
0.0713978 0.0002775 -0.0025 0.5
0.0514113 0.0496565 0.0025 0.5
0.0514113 0.0496565 -0.0025 0.5
0.0716756 0.0002775 9.36031e-20 0.5
0.0515311 0.04995 0.0025 0.5
0.0515311 0.04995 -0.0025 0.5
0.0719534 0.0002775 0.0025 0.5
0.0719534 0.0002775 -0.0025 0.5
0.0514923 0.0503243 0.0025 0.5
0.0514923 0.0503243 -0.0025 0.5
0.051502 0.0504991 1.81495e-21 0.5
0.0722313 0.000555 -0.0025 0.5
0.0722313 0.000555 0.0025 0.5
0.05151 0.050668 0.0025 0.5
0.05151 0.050668 -0.0025 0.5
0.0725091 0.0002775 0.0025 0.5
0.0725091 0.0002775 -0.0025 0.5
0.0515977 0.05106 0.0025 0.5
0.0515977 0.05106 -0.0025 0.5
0.0727869 0.0002775 1.145e-19 0.5
0.0515756 0.0515176 0.0025 0.5
0.0515756 0.0515176 -0.0025 0.5
0.0515789 0.0516131 1.34054e-18 0.5
0.0515814 0.0517066 0.0025 0.5
0.0515814 0.0517066 -0.0025 0.5
0.0730647 0.0002775 0.0025 0.5
0.0730647 0.0002775 -0.0025 0.5
0.0733425 0.000555 -0.0025 0.5
0.0733425 0.000555 0.0025 0.5
0.0516344 0.05217 -0.0025 0.5
0.0516344 0.05217 0.0025 0.5
0.0736203 0.0002775 0.0025 0.5
0.0736203 0.0002775 -0.0025 0.5
0.0516223 0.0527246 -1.16525e-18 0.5
0.0516215 0.0526735 -0.0025 0.5
0.0516215 0.0526735 0.0025 0.5
0.0516228 0.0527752 -0.0025 0.5
0.0516228 0.0527752 0.0025 0.5
0.0738981 0.0002775 1.12679e-19 0.5
0.0741759 0.0002775 0.0025 0.5
0.0741759 0.0002775 -0.0025 0.5
0.0516489 0.05328 0.0025 0.5
0.0516489 0.05328 -0.0025 0.5
0.0744538 0.000555 -0.0025 0.5
0.0744538 0.000555 0.0025 0.5
0.0516307 0.0538351 -4.88279e-18 0.5
0.0516308 0.0537927 0.0025 0.5
0.0516308 0.0537927 -0.0025 0.5
0.0516305 0.0538776 0.0025 0.5
0.0516305 0.0538776 -0.0025 0.5
0.0747316 0.0002775 0.0025 0.5
0.0747316 0.0002775 -0.0025 0.5
0.0750094 0.0002775 1.14375e-19 0.5
0.0516443 0.05439 0.0025 0.5
0.0516443 0.05439 -0.0025 0.5
0.0752872 0.0002775 0.0025 0.5
0.0752872 0.0002775 -0.0025 0.5
0.0516068 0.0548788 0.0025 0.5
0.0516068 0.0548788 -0.0025 0.5
0.0516058 0.0549458 4.7266e-18 0.5
0.0516044 0.0550136 0.0025 0.5
0.0516044 0.0550136 -0.0025 0.5
0.075565 0.000555 -0.0025 0.5
0.075565 0.000555 0.0025 0.5
0.0516233 0.0555 0.0025 0.5
0.0516233 0.0555 -0.0025 0.5
0.0758428 0.0002775 0.0025 0.5
0.0758428 0.0002775 -0.0025 0.5
0.051561 0.055943 -0.0025 0.5
0.051561 0.055943 0.0025 0.5
0.0761206 0.0002775 1.14623e-19 0.5
0.051558 0.0560571 -8.57903e-20 0.5
0.0515546 0.0561734 -0.0025 0.5
0.0515546 0.0561734 0.0025 0.5
0.0763984 0.0002775 0.0025 0.5
0.0763984 0.0002775 -0.0025 0.5
0.0515892 0.05661 0.0025 0.5
0.0515892 0.05661 -0.0025 0.5
0.0766763 0.000555 -0.0025 0.5
0.0766763 0.000555 0.0025 0.5
0.0515031 0.0569952 0.0025 0.5
0.0515031 0.0569952 -0.0025 0.5
0.0514973 0.0571692 -2.0686e-18 0.5
0.0769541 0.0002775 0.0025 0.5
0.0769541 0.0002775 -0.0025 0.5
0.0514906 0.0573473 0.0025 0.5
0.0514906 0.0573473 -0.0025 0.5
0.0772319 0.0002775 1.08196e-19 0.5
0.0515427 0.05772 0.0025 0.5
0.0515427 0.05772 -0.0025 0.5
0.0775097 0.0002775 0.0025 0.5
0.0775097 0.0002775 -0.0025 0.5
0.0514371 0.0580393 0.0025 0.5
0.0514371 0.0580393 -0.0025 0.5
0.0514275 0.0582817 -9.92719e-19 0.5
0.0777875 0.000555 -0.0025 0.5
0.0777875 0.000555 0.0025 0.5
0.0514171 0.0585308 0.0025 0.5
0.0514171 0.0585308 -0.0025 0.5
0.0780653 0.0002775 0.0025 0.5
0.0780653 0.0002775 -0.0025 0.5
0.0514848 0.05883 0.0025 0.5
0.0514848 0.05883 -0.0025 0.5
0.0513706 0.0590828 0.00136141 0.5
0.0513706 0.0590828 -0.00136141 0.5
0.0513706 0.0590828 -0.0025 0.5
0.0513706 0.0590828 0.0025 0.5
0.0783431 0.0002775 8.26565e-20 0.5
0.0513583 0.059385 3.70875e-18 0.5
0.0786209 0.0002775 0.0025 0.5
0.0786209 0.0002775 -0.0025 0.5
0.0513434 0.0597143 -0.00148349 0.5
0.0513434 0.0597143 0.00148349 0.5
0.0513434 0.0597143 -0.0025 0.5
0.0513434 0.0597143 0.0025 0.5
0.0788988 0.000555 -0.0025 0.5
0.0788988 0.000555 0.0025 0.5
0.0514185 0.05994 0.0025 0.5
0.0514185 0.05994 -0.0025 0.5
0.0513074 0.0601297 -0.00164538 0.5
0.0513074 0.0601297 0.00164538 0.5
0.0513074 0.0601297 0.0025 0.5
0.0513074 0.0601297 -0.0025 0.5
0.0791766 0.0002775 0.0025 0.5
0.0791766 0.0002775 -0.0025 0.5
0.0512923 0.060495 1.97586e-18 0.5
0.0794544 0.0002775 9.54222e-20 0.5
0.051275 0.0608927 -0.00179132 0.5
0.051275 0.0608927 0.00179132 0.5
0.051275 0.0608927 0.0025 0.5
0.051275 0.0608927 -0.0025 0.5
0.0797322 0.0002775 0.0025 0.5
0.0797322 0.0002775 -0.0025 0.5
0.0513467 0.06105 -0.0025 0.5
0.0513467 0.06105 0.0025 0.5
0.0512508 0.0611832 -0.00190014 0.5
0.0512508 0.0611832 0.00190014 0.5
0.0512508 0.0611832 0.0025 0.5
0.0512508 0.0611832 -0.0025 0.5
0.08001 0.000555 -0.0025 0.5
0.08001 0.000555 0.0025 0.5
0.051234 0.061605 -2.42072e-18 0.5
0.0802878 0.0002775 0.0025 0.5
0.0802878 0.0002775 -0.0025 0.5
0.0512163 0.0620613 -0.00205527 0.5
0.0512163 0.0620613 0.00205527 0.5
0.0512163 0.0620613 0.0025 0.5
0.0512163 0.0620613 -0.0025 0.5
0.0805656 0.0002775 1.15842e-19 0.5
0.0512746 0.06216 -0.0025 0.5
0.0512746 0.06216 0.0025 0.5
0.0512027 0.0622451 0.00211676 0.5
0.0512027 0.0622451 -0.00211676 0.5
0.0512027 0.0622451 0.0025 0.5
0.0512027 0.0622451 -0.0025 0.5
0.0808434 0.0002775 0.0025 0.5
0.0808434 0.0002775 -0.0025 0.5
0.0511858 0.062715 0 0.5
0.0811213 0.000555 -0.0025 0.5
0.0811213 0.000555 0.0025 0.5
0.0511691 0.0632185 -0.002268 0.5
0.0511691 0.0632185 0.002268 0.5
0.0511691 0.0632185 0.0025 0.5
0.0511691 0.0632185 -0.0025 0.5
0.0512063 0.06327 0.0025 0.5
0.0512063 0.06327 -0.0025 0.5
0.0511628 0.0633153 -0.00229607 0.5
0.0511628 0.0633153 0.00229607 0.5
0.0813991 0.0002775 0.0025 0.5
0.0813991 0.0002775 -0.0025 0.5
0.0511628 0.0633153 0.0025 0.5
0.0511628 0.0633153 -0.0025 0.5
0.0816769 0.0002775 9.5745e-20 0.5
0.0511469 0.063825 2.35265e-20 0.5
0.0819547 0.0002775 0.0025 0.5
0.0819547 0.0002775 -0.0025 0.5
0.0511326 0.0643649 -0.00243205 0.5
0.0511326 0.0643649 0.00243205 0.5
0.0511326 0.0643649 0.0025 0.5
0.0511326 0.0643649 -0.0025 0.5
0.0511311 0.0643936 -0.00243871 0.5
0.0511311 0.0643936 0.00243871 0.5
0.0511454 0.06438 0.0025 0.5
0.0511454 0.06438 -0.0025 0.5
0.0511311 0.0643936 0.0025 0.5
0.0511311 0.0643936 -0.0025 0.5
0.0822325 0.000555 -0.0025 0.5
0.0822325 0.000555 0.0025 0.5
0.0825103 0.0002775 0.0025 0.5
0.0825103 0.0002775 -0.0025 0.5
0.0511175 0.064935 2.48412e-20 0.5
0.0827881 0.0002775 8.32524e-20 0.5
0.0830659 0.0002775 0.0025 0.5
0.0830659 0.0002775 -0.0025 0.5
0.0511464 0.0654612 -0.00237011 0.5
0.0511464 0.0654612 0.00237011 0.5
0.0511464 0.0654612 0.0025 0.5
0.0511464 0.0654612 -0.0025 0.5
0.0511784 0.06549 0.0025 0.5
0.0511784 0.06549 -0.0025 0.5
0.0511539 0.0655264 -0.00233604 0.5
0.0511539 0.0655264 0.00233604 0.5
0.0511539 0.0655264 0.0025 0.5
0.0511539 0.0655264 -0.0025 0.5
0.0833437 0.000555 -0.0025 0.5
0.0833437 0.000555 0.0025 0.5
0.0836216 0.0002775 0.0025 0.5
0.0836216 0.0002775 -0.0025 0.5
0.0838994 0.0002775 3.228e-22 0.5
0.0514295 0.0662883 0.0025 0.5
0.0514295 0.0662883 -0.0025 0.5
0.0516082 0.0662721 1.45222e-21 0.5
0.0841772 0.0002775 0.0025 0.5
0.0841772 0.0002775 -0.0025 0.5
0.0522288 0.0660294 -0.0025 0.5
0.0522288 0.0660294 0.0025 0.5
0.0519167 0.0662883 0.0025 0.5
0.0519167 0.0662883 -0.0025 0.5
0.084455 0.000555 -0.0025 0.5
0.084455 0.000555 0.0025 0.5
0.0525066 0.0663225 0.0025 0.5
0.0525066 0.0663225 -0.0025 0.5
0.0527844 0.0663225 0 0.5
0.0847328 0.0002775 0.0025 0.5
0.0847328 0.0002775 -0.0025 0.5
0.05334 0.066045 -0.0025 0.5
0.05334 0.066045 0.0025 0.5
0.0530622 0.0663225 0.0025 0.5
0.0530622 0.0663225 -0.0025 0.5
0.0850106 0.0002775 0 0.5
0.0536178 0.0663225 0.0025 0.5
0.0536178 0.0663225 -0.0025 0.5
0.0852884 0.0002775 0.0025 0.5
0.0852884 0.0002775 -0.0025 0.5
0.0538956 0.0663225 0 0.5
0.0855663 0.000555 -0.0025 0.5
0.0855663 0.000555 0.0025 0.5
0.0544513 0.066045 -0.0025 0.5
0.0544513 0.066045 0.0025 0.5
0.0541734 0.0663225 0.0025 0.5
0.0541734 0.0663225 -0.0025 0.5
0.0858441 0.0002775 0.0025 0.5
0.0858441 0.0002775 -0.0025 0.5
0.0547291 0.0663225 0.0025 0.5
0.0547291 0.0663225 -0.0025 0.5
0.0861219 0.0002775 0 0.5
0.0550069 0.0663225 0 0.5
0.0555625 0.066045 -0.0025 0.5
0.0555625 0.066045 0.0025 0.5
0.0552847 0.0663225 0.0025 0.5
0.0552847 0.0663225 -0.0025 0.5
0.0863997 0.0002775 0.0025 0.5
0.0863997 0.0002775 -0.0025 0.5
0.0866775 0.000555 -0.0025 0.5
0.0866775 0.000555 0.0025 0.5
0.0558403 0.0663225 0.0025 0.5
0.0558403 0.0663225 -0.0025 0.5
0.0561181 0.0663225 0 0.5
0.0869553 0.0002775 0.0025 0.5
0.0869553 0.0002775 -0.0025 0.5
0.0566738 0.066045 -0.0025 0.5
0.0566738 0.066045 0.0025 0.5
0.0563959 0.0663225 0.0025 0.5
0.0563959 0.0663225 -0.0025 0.5
0.0872331 0.0002775 0 0.5
0.0569516 0.0663225 0.0025 0.5
0.0569516 0.0663225 -0.0025 0.5
0.0875109 0.0002775 0.0025 0.5
0.0875109 0.0002775 -0.0025 0.5
0.0572294 0.0663225 0 0.5
0.057785 0.066045 -0.0025 0.5
0.057785 0.066045 0.0025 0.5
0.0575072 0.0663225 0.0025 0.5
0.0575072 0.0663225 -0.0025 0.5
0.0877888 0.000555 -0.0025 0.5
0.0877888 0.000555 0.0025 0.5
0.0880666 0.0002775 -0.00125 0.5
0.0880666 0.0002775 0.00125 0.5
0.0880666 0.0002775 0.0025 0.5
0.0880666 0.0002775 -0.0025 0.5
0.0580628 0.0663225 -0.0025 0.5
0.0580628 0.0663225 0.0025 0.5
0.0583406 0.0663225 0 0.5
0.0883444 0.0002775 0 0.5
0.0883444 0.00111 0.0025 0.5
0.0883444 0.00111 -0.0025 0.5
0.0883444 0.00222 0.0025 0.5
0.0883444 0.00222 -0.0025 0.5
0.0883444 0.00333 0.0025 0.5
0.0883444 0.00333 -0.0025 0.5
0.0883444 0.00444 0.0025 0.5
0.0883444 0.00444 -0.0025 0.5
0.0588963 0.066045 -0.0025 0.5
0.0588963 0.066045 0.0025 0.5
0.0586184 0.0663225 -0.0025 0.5
0.0586184 0.0663225 0.0025 0.5
0.0883444 0.00555 0.0025 0.5
0.0883444 0.00555 -0.0025 0.5
0.0886222 0.000555 0 0.5
0.0883444 0.00666 0.0025 0.5
0.0883444 0.00666 -0.0025 0.5
0.0886222 0.0002775 -0.00125 0.5