# f_l  POINT_DATA 1424
#  x  y  z  f_l
0.0539029 0.0016649 -1.84018e-19 0.5
0.0539014 0.00111 0.0025 0.5
0.0539014 0.00111 -0.0025 0.5
0.0538797 0.00222 0.0025 0.5
0.0538797 0.00222 -0.0025 0.5
0.0539031 0.00165749 -0.0025 0.5
0.0539031 0.00165749 0.0025 0.5
0.0539029 0.00167222 -0.0025 0.5
0.0539029 0.00167222 0.0025 0.5
0.0540193 0.000635851 -5.1472e-21 0.5
0.0539542 0.00277601 -4.68386e-20 0.5
0.0539157 0.00333 0.0025 0.5
0.0539157 0.00333 -0.0025 0.5
0.0539528 0.0027179 0.0025 0.5
0.0539528 0.0027179 -0.0025 0.5
0.054017 0.000676277 -0.0025 0.5
0.054017 0.000676277 0.0025 0.5
0.0539558 0.00283514 0.0025 0.5
0.0539558 0.00283514 -0.0025 0.5
0.0540113 0.00388739 5.20694e-23 0.5
0.0540079 0.00377288 0.0025 0.5
0.0540079 0.00377288 -0.0025 0.5
0.0539603 0.00444 -0.0025 0.5
0.0539603 0.00444 0.0025 0.5
0.054015 0.00400428 0.0025 0.5
0.054015 0.00400428 -0.0025 0.5
0.0540761 0.00499936 -5.36692e-20 0.5
0.0540698 0.004821 0.0025 0.5
0.0540698 0.004821 -0.0025 0.5
0.0540149 0.00555 0.0025 0.5
0.0540149 0.00555 -0.0025 0.5
0.0540829 0.00518209 0.0025 0.5
0.0540829 0.00518209 -0.0025 0.5
0.054145 0.00611171 1.43144e-20 0.5
0.0541353 0.00586557 -0.0025 0.5
0.0541353 0.00586557 0.0025 0.5
0.0544513 0.000757246 -0.0025 0.5
0.0544513 0.000757246 0.0025 0.5
0.0540788 0.00666 0.0025 0.5
0.0540788 0.00666 -0.0025 0.5
0.0541555 0.00636457 0.0025 0.5
0.0541555 0.00636457 -0.0025 0.5
0.0542011 0.00690991 0.00137426 0.5
0.0542011 0.00690991 -0.00137426 0.5
0.0542133 0.007215 -1.36943e-19 0.5
0.0542011 0.00690991 0.0025 0.5
0.0542011 0.00690991 -0.0025 0.5
0.0541489 0.00777 0.0025 0.5
0.0541489 0.00777 -0.0025 0.5
0.0542279 0.00754687 -0.00149491 0.5
0.0542279 0.00754687 0.00149491 0.5
0.0547291 0.0002775 0.0025 0.5
0.0547291 0.0002775 -0.0025 0.5
0.0542279 0.00754687 -0.0025 0.5
0.0542279 0.00754687 0.0025 0.5
0.0542625 0.00795852 0.00165079 0.5
0.0542625 0.00795852 -0.00165079 0.5
0.0542625 0.00795852 0.0025 0.5
0.0542625 0.00795852 -0.0025 0.5
0.0542773 0.008325 1.38327e-20 0.5
0.0542198 0.00888 0.0025 0.5
0.0542198 0.00888 -0.0025 0.5
0.0550069 0.0002775 -5.58287e-21 0.5
0.0542934 0.00872231 0.00178968 0.5
0.0542934 0.00872231 -0.00178968 0.5
0.0542934 0.00872231 0.0025 0.5
0.0542934 0.00872231 -0.0025 0.5
0.0543161 0.00901497 0.00189205 0.5
0.0543161 0.00901497 -0.00189205 0.5
0.0543161 0.00901497 0.0025 0.5
0.0543161 0.00901497 -0.0025 0.5
0.0543318 0.009435 -1.23252e-19 0.5
0.0543295 0.00999 0.0025 0.5
0.0543295 0.00999 -0.0025 0.5
0.0543739 0.00991278 -0.00215216 0.5
0.0543739 0.00991278 0.00215216 0.5
0.0543739 0.00991278 0.0025 0.5
0.0543739 0.00991278 -0.0025 0.5
0.0552847 0.0002775 0.0025 0.5
0.0552847 0.0002775 -0.0025 0.5
0.0543833 0.0100578 0.00219445 0.5
0.0543833 0.0100578 -0.00219445 0.5
0.0543833 0.0100578 0.0025 0.5
0.0543833 0.0100578 -0.0025 0.5
0.0544285 0.010545 7.52142e-20 0.5
0.0544513 0.0107059 -0.0025 0.5
0.0544513 0.0107059 0.0025 0.5
0.0555625 0.000555 -0.0025 0.5
0.0555625 0.000555 0.0025 0.5
0.0544879 0.0110634 -0.0023351 0.5
0.0544879 0.0110634 0.0023351 0.5
0.0544879 0.0110634 0.0025 0.5
0.0544879 0.0110634 -0.0025 0.5
0.0545045 0.0111532 -0.00226036 0.5
0.0545045 0.0111532 0.00226036 0.5
0.0545045 0.0111532 0.0025 0.5
0.0545045 0.0111532 -0.0025 0.5
0.0545225 0.0111 0.0025 0.5
0.0545225 0.0111 -0.0025 0.5
0.0545697 0.011655 -9.02446e-19 0.5
0.0558403 0.0002775 0.0025 0.5
0.0558403 0.0002775 -0.0025 0.5
0.0546184 0.0120431 -0.00174807 0.5
0.0546184 0.0120431 0.00174807 0.5
0.0546184 0.0120431 0.0025 0.5
0.0546184 0.0120431 -0.0025 0.5
0.0561181 0.0002775 0 0.5
0.0547098 0.0124682 -0.00133682 0.5
0.0547098 0.0124682 0.00133682 0.5
0.0547282 0.01221 0.0025 0.5
0.0547282 0.01221 -0.0025 0.5
0.0547098 0.0124682 0.0025 0.5
0.0547098 0.0124682 -0.0025 0.5
0.0547747 0.0129125 4.5598e-19 0.5
0.0547854 0.0129862 0.0025 0.5
0.0547854 0.0129862 -0.0025 0.5
0.0563959 0.0002775 0.0025 0.5
0.0563959 0.0002775 -0.0025 0.5
0.0549157 0.01332 0.0025 0.5
0.0549157 0.01332 -0.0025 0.5
0.0566738 0.000555 -0.0025 0.5
0.0566738 0.000555 0.0025 0.5
0.0550216 0.0138706 6.45814e-19 0.5
0.0550208 0.0138611 -0.0025 0.5
0.0550208 0.0138611 0.0025 0.5
0.0550254 0.0138935 -0.0025 0.5
0.0550254 0.0138935 0.0025 0.5
0.055091 0.01443 -0.0025 0.5
0.055091 0.01443 0.0025 0.5
0.0569516 0.0002775 0.0025 0.5
0.0569516 0.0002775 -0.0025 0.5
0.0552486 0.0148298 1.74265e-20 0.5
0.0572294 0.0002775 0 0.5
0.05524 0.0147521 0.0025 0.5
0.05524 0.0147521 -0.0025 0.5
0.0552967 0.0152745 -0.00130411 0.5
0.0552967 0.0152745 0.00130411 0.5
0.0552967 0.0152745 0.0025 0.5
0.0552967 0.0152745 -0.0025 0.5
0.0552527 0.01554 0.0025 0.5
0.0552527 0.01554 -0.0025 0.5
0.0575072 0.0002775 0.0025 0.5
0.0575072 0.0002775 -0.0025 0.5
0.0553824 0.0157198 -0.00168987 0.5
0.0553824 0.0157198 0.00168987 0.5
0.0553824 0.0157198 -0.0025 0.5
0.0553824 0.0157198 0.0025 0.5
0.0554154 0.016095 8.29487e-21 0.5
0.057785 0.000555 -0.0025 0.5
0.057785 0.000555 0.0025 0.5
0.0554468 0.0165345 -0.00197958 0.5
0.0554468 0.0165345 0.00197958 0.5
0.0553927 0.01665 0.0025 0.5
0.0553927 0.01665 -0.0025 0.5
0.0554468 0.0165345 -0.0025 0.5
0.0554468 0.0165345 0.0025 0.5
0.0554741 0.0167383 0.0021021 0.5
0.0554741 0.0167383 -0.0021021 0.5
0.0554741 0.0167383 0.0025 0.5
0.0554741 0.0167383 -0.0025 0.5
0.0555033 0.017205 2.74887e-20 0.5
0.0580628 0.0002775 0.0025 0.5
0.0580628 0.0002775 -0.0025 0.5
0.0555625 0.017452 -0.0025 0.5
0.0555625 0.017452 0.0025 0.5
0.0583406 0.0002775 0 0.5
0.0555933 0.0177292 -0.00236139 0.5
0.0555933 0.0177292 0.00236139 0.5
0.0555933 0.0177292 0.0025 0.5
0.0555933 0.0177292 -0.0025 0.5
0.0556195 0.0178169 -0.00224363 0.5
0.0556195 0.0178169 0.00224363 0.5
0.0556321 0.01776 0.0025 0.5
0.0556321 0.01776 -0.0025 0.5
0.0556195 0.0178169 -0.0025 0.5
0.0556195 0.0178169 0.0025 0.5
0.0557257 0.018315 1.7543e-20 0.5
0.0586184 0.0002775 0.0025 0.5
0.0586184 0.0002775 -0.0025 0.5
0.055784 0.0186487 -0.00150328 0.5
0.055784 0.0186487 0.00150328 0.5
0.055784 0.0186487 0.0025 0.5
0.055784 0.0186487 -0.0025 0.5
0.0588963 0.000555 -0.0025 0.5
0.0588963 0.000555 0.0025 0.5
0.0559468 0.01887 0.0025 0.5
0.0559468 0.01887 -0.0025 0.5
0.0591741 0.0002775 0.0025 0.5
0.0591741 0.0002775 -0.0025 0.5
0.0560304 0.0193374 -0.0025 0.5
0.0560304 0.0193374 0.0025 0.5
0.0560545 0.0194357 -5.20846e-21 0.5
0.0560621 0.019481 -0.0025 0.5
0.0560621 0.019481 0.0025 0.5
0.0594519 0.0002775 -7.45167e-21 0.5
0.0561947 0.01998 0.0025 0.5
0.0561947 0.01998 -0.0025 0.5
0.0597297 0.0002775 0.0025 0.5
0.0597297 0.0002775 -0.0025 0.5
0.0563755 0.0203718 3.73259e-20 0.5
0.0563632 0.0202902 -0.0025 0.5
0.0563632 0.0202902 0.0025 0.5
0.0600075 0.000555 -0.0025 0.5
0.0600075 0.000555 0.0025 0.5
0.0564408 0.0208573 -0.00145175 0.5
0.0564408 0.0208573 0.00145175 0.5
0.0564408 0.0208573 0.0025 0.5
0.0564408 0.0208573 -0.0025 0.5
0.0564009 0.02109 -0.0025 0.5
0.0564009 0.02109 0.0025 0.5
0.0602853 0.0002775 0.0025 0.5
0.0602853 0.0002775 -0.0025 0.5
0.056526 0.0212376 0.00183523 0.5
0.056526 0.0212376 -0.00183523 0.5
0.056526 0.0212376 0.0025 0.5
0.056526 0.0212376 -0.0025 0.5
0.0605631 0.0002775 -9.93434e-23 0.5
0.0565671 0.021645 -8.77839e-20 0.5
0.0566019 0.0221283 0.00217686 0.5
0.0566019 0.0221283 -0.00217686 0.5
0.0565619 0.0222 0.0025 0.5
0.0565619 0.0222 -0.0025 0.5
0.0566019 0.0221283 0.0025 0.5
0.0566019 0.0221283 -0.0025 0.5
0.056619 0.0222547 0.00225345 0.5
0.056619 0.0222547 -0.00225345 0.5
0.056619 0.0222547 0.0025 0.5
0.056619 0.0222547 -0.0025 0.5
0.0608409 0.0002775 0.0025 0.5
0.0608409 0.0002775 -0.0025 0.5
0.0566505 0.022755 2.33973e-19 0.5
0.0566737 0.0226722 -0.0025 0.5
0.0566738 0.0226722 0.0025 0.5
0.0611187 0.000555 -0.0025 0.5
0.0611187 0.000555 0.0025 0.5
0.0567402 0.0232436 0.00220089 0.5
0.0567402 0.0232436 -0.00220089 0.5
0.0567402 0.0232436 0.0025 0.5
0.0567402 0.0232436 -0.0025 0.5
0.0613966 0.0002775 -0.0025 0.5
0.0613966 0.0002775 0.0025 0.5
0.0568279 0.02331 0.0025 0.5
0.0568279 0.02331 -0.0025 0.5
0.0568214 0.0234575 -0.00183554 0.5
0.0568214 0.0234575 0.00183554 0.5
0.0568214 0.0234575 -0.0025 0.5
0.0568214 0.0234575 0.0025 0.5
0.0616744 0.0002775 0 0.5
0.0569572 0.0240358 2.4544e-19 0.5
0.0569728 0.0241213 -0.0025 0.5
0.0569728 0.0241213 0.0025 0.5
0.0619522 0.0002775 -0.0025 0.5
0.0619522 0.0002775 0.0025 0.5
0.0571602 0.02442 0.0025 0.5
0.0571602 0.02442 -0.0025 0.5
0.06223 0.000555 -0.0025 0.5
0.06223 0.000555 0.0025 0.5
0.0573442 0.0249561 -4.61153e-19 0.5
0.0573316 0.0248729 0.0025 0.5
0.0573316 0.0248729 -0.0025 0.5
0.0625078 0.0002775 0.0025 0.5
0.0625078 0.0002775 -0.0025 0.5
0.0573817 0.0251272 0.0025 0.5
0.0573817 0.0251272 -0.0025 0.5
0.0627856 0.0002775 3.76374e-21 0.5
0.0574121 0.02553 0.0025 0.5
0.0574121 0.02553 -0.0025 0.5
0.0575698 0.0257449 0.00153191 0.5
0.0575698 0.0257449 -0.00153191 0.5
0.0630634 0.0002775 -0.0025 0.5
0.0630634 0.0002775 0.0025 0.5
0.0575698 0.0257449 -0.0025 0.5
0.0575698 0.0257449 0.0025 0.5
0.0576148 0.026085 1.77837e-19 0.5
0.0633413 0.000555 -0.0025 0.5
0.0633413 0.000555 0.0025 0.5
0.0576569 0.026512 -0.00192341 0.5
0.0576569 0.026512 0.00192341 0.5
0.0576569 0.026512 0.0025 0.5
0.0576569 0.026512 -0.0025 0.5
0.0576081 0.02664 -0.0025 0.5
0.0576081 0.02664 0.0025 0.5
0.0576958 0.0267291 0.00209863 0.5
0.0576958 0.0267291 -0.00209863 0.5
0.0576958 0.0267291 0.0025 0.5
0.0576958 0.0267291 -0.0025 0.5
0.0636191 0.0002775 0.0025 0.5
0.0636191 0.0002775 -0.0025 0.5
0.0577341 0.027195 -6.38023e-19 0.5
0.0638969 0.0002775 -5.95927e-22 0.5
0.057771 0.02775 0.0025 0.5
0.057771 0.02775 -0.0025 0.5
0.057777 0.027742 -0.00246391 0.5
0.057777 0.027742 0.00246391 0.5
0.057777 0.027742 0.0025 0.5
0.057777 0.027742 -0.0025 0.5
0.0577783 0.0277567 0.00246967 0.5
0.0577783 0.0277567 -0.00246967 0.5
0.0577783 0.0277567 0.0025 0.5
0.0577783 0.0277567 -0.0025 0.5
0.057785 0.0278091 -0.0025 0.5
0.057785 0.0278091 0.0025 0.5
0.0641747 0.0002775 0.0025 0.5
0.0641747 0.0002775 -0.0025 0.5
0.0578204 0.028305 7.43388e-19 0.5
0.0644525 0.000555 -0.0025 0.5
0.0644525 0.000555 0.0025 0.5
0.0578954 0.0287497 -0.00200318 0.5
0.0578954 0.0287497 0.00200318 0.5
0.0578954 0.0287497 0.0025 0.5
0.0578954 0.0287497 -0.0025 0.5
0.0647303 0.0002775 0.0025 0.5
0.0647303 0.0002775 -0.0025 0.5
0.0580262 0.02886 0.0025 0.5
0.0580262 0.02886 -0.0025 0.5
0.0580417 0.0291164 -0.00134493 0.5
0.0580417 0.0291164 0.00134493 0.5
0.0580417 0.0291164 0.0025 0.5
0.0580417 0.0291164 -0.0025 0.5
0.0650081 0.0002775 0 0.5
0.0581407 0.0295401 -2.41637e-18 0.5
0.0581527 0.0296027 0.0025 0.5
0.0581527 0.0296027 -0.0025 0.5
0.0652859 0.0002775 0.0025 0.5
0.0652859 0.0002775 -0.0025 0.5
0.0655638 0.000555 -0.0025 0.5
0.0655638 0.000555 0.0025 0.5
0.0583337 0.02997 0.0025 0.5
0.0583337 0.02997 -0.0025 0.5
0.0658416 0.0002775 0.0025 0.5
0.0658416 0.0002775 -0.0025 0.5
0.0585127 0.0303531 0.0025 0.5
0.0585127 0.0303531 -0.0025 0.5
0.058529 0.0304858 2.17172e-18 0.5
0.0661194 0.0002775 -1.81913e-21 0.5
0.0585833 0.0307674 0.0025 0.5
0.0585833 0.0307674 -0.0025 0.5
0.0585707 0.03108 0.0025 0.5
0.0585707 0.03108 -0.0025 0.5
0.0663972 0.0002775 0.0025 0.5
0.0663972 0.0002775 -0.0025 0.5
0.0587141 0.0312619 0.00168047 0.5
0.0587141 0.0312619 -0.00168047 0.5
0.0587141 0.0312619 0.0025 0.5
0.0587141 0.0312619 -0.0025 0.5
0.066675 0.000555 -0.0025 0.5
0.066675 0.000555 0.0025 0.5
0.0587577 0.031635 -3.10359e-20 0.5
0.0669528 0.0002775 0.0025 0.5
0.0669528 0.0002775 -0.0025 0.5
0.0588018 0.0320957 -0.00207517 0.5
0.0588018 0.0320957 0.00207517 0.5
0.0588018 0.0320957 0.0025 0.5
0.0588018 0.0320957 -0.0025 0.5
0.0587596 0.03219 0.0025 0.5
0.0587596 0.03219 -0.0025 0.5
0.0588299 0.0322563 0.00220152 0.5
0.0588299 0.0322563 -0.00220152 0.5
0.0588299 0.0322563 0.0025 0.5
0.0588299 0.0322563 -0.0025 0.5
0.0672306 0.0002775 9.10876e-20 0.5
0.0588692 0.032745 2.7629e-20 0.5
0.0675084 0.0002775 0.0025 0.5
0.0675084 0.0002775 -0.0025 0.5
0.0588963 0.0331219 -0.0025 0.5
0.0588963 0.0331219 0.0025 0.5
0.058909 0.0332873 -0.00244259 0.5
0.058909 0.0332873 0.00244259 0.5
0.058909 0.0332873 0.0025 0.5
0.058909 0.0332873 -0.0025 0.5
0.0589119 0.0333156 -0.00242977 0.5
0.0589119 0.0333156 0.00242977 0.5
0.0589119 0.0333156 0.0025 0.5
0.0589119 0.0333156 -0.0025 0.5
0.058923 0.0333 0.0025 0.5
0.058923 0.0333 -0.0025 0.5
0.0677863 0.000555 -0.0025 0.5
0.0677863 0.000555 0.0025 0.5
0.0589535 0.033855 -7.3761e-20 0.5
0.0680641 0.0002775 0.0025 0.5
0.0680641 0.0002775 -0.0025 0.5
0.0589864 0.03432 -0.0020944 0.5
0.0589864 0.03432 0.0020944 0.5
0.0589864 0.03432 0.0025 0.5
0.0589864 0.03432 -0.0025 0.5
0.0683419 0.0002775 1.14121e-19 0.5
0.0590187 0.0345324 -0.00194887 0.5
0.0590187 0.0345324 0.00194887 0.5
0.0590713 0.03441 0.0025 0.5
0.0590713 0.03441 -0.0025 0.5
0.0590187 0.0345324 0.0025 0.5
0.0590187 0.0345324 -0.0025 0.5
0.0590544 0.034965 -3.19116e-20 0.5
0.0686197 0.0002775 0.0025 0.5
0.0686197 0.0002775 -0.0025 0.5
0.059106 0.0353105 -0.00155611 0.5
0.059106 0.0353105 0.00155611 0.5
0.059106 0.0353105 0.0025 0.5
0.059106 0.0353105 -0.0025 0.5
0.0688975 0.000555 -0.0025 0.5
0.0688975 0.000555 0.0025 0.5
0.0592716 0.03552 0.0025 0.5
0.0592716 0.03552 -0.0025 0.5
0.0691753 0.0002775 0.0025 0.5
0.0691753 0.0002775 -0.0025 0.5
0.059333 0.0359562 0.0025 0.5
0.059333 0.0359562 -0.0025 0.5
0.0694531 0.0002775 9.36031e-20 0.5
0.0593629 0.0360954 -7.43648e-20 0.5
0.059371 0.0361557 0.0025 0.5
0.059371 0.0361557 -0.0025 0.5
0.0697309 0.0002775 0.0025 0.5
0.0697309 0.0002775 -0.0025 0.5
0.0594965 0.03663 0.0025 0.5
0.0594965 0.03663 -0.0025 0.5
0.0700088 0.000555 -0.0025 0.5
0.0700088 0.000555 0.0025 0.5
0.0596489 0.0369882 0.0025 0.5
0.0596489 0.0369882 -0.0025 0.5
0.0596758 0.0372028 8.35077e-22 0.5
0.0702866 0.0002775 0.0025 0.5
0.0702866 0.0002775 -0.0025 0.5
0.0597024 0.0374353 0.0025 0.5
0.0597024 0.0374353 -0.0025 0.5
0.0705644 0.0002775 2.66209e-19 0.5
0.0596656 0.03774 0.0025 0.5
0.0596656 0.03774 -0.0025 0.5
0.0598001 0.0379471 0.00156699 0.5
0.0598001 0.0379471 -0.00156699 0.5
0.0598001 0.0379471 0.0025 0.5
0.0598001 0.0379471 -0.0025 0.5
0.0708422 0.0002775 0.0025 0.5
0.0708422 0.0002775 -0.0025 0.5
0.0598305 0.038295 1.30662e-19 0.5
0.07112 0.000555 -0.0025 0.5
0.07112 0.000555 0.0025 0.5
0.0598572 0.0386998 -0.00182353 0.5
0.0598572 0.0386998 0.00182353 0.5
0.0598572 0.0386998 0.0025 0.5
0.0598572 0.0386998 -0.0025 0.5
0.0597945 0.03885 0.0025 0.5
0.0597945 0.03885 -0.0025 0.5
0.0713978 0.0002775 0.0025 0.5
0.0713978 0.0002775 -0.0025 0.5
0.0598902 0.0389671 0.00197238 0.5
0.0598902 0.0389671 -0.00197238 0.5
0.0598902 0.0389671 0.0025 0.5
0.0598902 0.0389671 -0.0025 0.5
0.0716756 0.0002775 9.36031e-20 0.5
0.0599158 0.039405 3.28867e-21 0.5
0.0719534 0.0002775 0.0025 0.5
0.0719534 0.0002775 -0.0025 0.5
0.0599362 0.0398888 -0.00217927 0.5
0.0599362 0.0398888 0.00217927 0.5
0.0599362 0.0398888 0.0025 0.5
0.0599362 0.0398888 -0.0025 0.5
0.0598903 0.03996 0.0025 0.5
0.0598903 0.03996 -0.0025 0.5
0.0599469 0.0400205 0.00222737 0.5
0.0599469 0.0400205 -0.00222737 0.5
0.0599469 0.0400205 0.0025 0.5
0.0599469 0.0400205 -0.0025 0.5
0.0722313 0.000555 -0.0025 0.5
0.0722313 0.000555 0.0025 0.5
0.0599662 0.040515 -9.65873e-20 0.5
0.0725091 0.0002775 0.0025 0.5
0.0725091 0.0002775 -0.0025 0.5
0.0599794 0.0410419 -0.00237334 0.5
0.0599794 0.0410419 0.00237334 0.5
0.0599564 0.04107 0.0025 0.5
0.0599564 0.04107 -0.0025 0.5
0.0599794 0.0410419 0.0025 0.5
0.0599794 0.0410419 -0.0025 0.5
0.059982 0.0410955 0.0023851 0.5
0.059982 0.0410955 -0.0023851 0.5
0.059982 0.0410955 0.0025 0.5
0.059982 0.0410955 -0.0025 0.5
0.0727869 0.0002775 1.145e-19 0.5
0.0599946 0.041625 0 0.5
0.0730647 0.0002775 0.0025 0.5
0.0730647 0.0002775 -0.0025 0.5
0.0599946 0.04218 0.0025 0.5
0.0599946 0.04218 -0.0025 0.5
0.0600008 0.0421733 -0.00246985 0.5
0.0600008 0.0421733 0.00246985 0.5
0.0600008 0.0421733 0.0025 0.5
0.0600008 0.0421733 -0.0025 0.5
0.0733425 0.000555 -0.0025 0.5
0.0733425 0.000555 0.0025 0.5
0.0600011 0.0421864 0.00247118 0.5
0.0600011 0.0421864 -0.00247118 0.5
0.0600011 0.0421864 0.0025 0.5
0.0600011 0.0421864 -0.0025 0.5
0.0736203 0.0002775 0.0025 0.5
0.0736203 0.0002775 -0.0025 0.5
0.0600072 0.042735 -2.18413e-20 0.5
0.0600075 0.0428639 0.0025 0.5
0.0600075 0.0428639 -0.0025 0.5
0.0738981 0.0002775 1.12679e-19 0.5
0.0600115 0.043286 -0.00248199 0.5
0.0600115 0.043286 0.00248199 0.5
0.0600115 0.043286 0.0025 0.5
0.0600115 0.043286 -0.0025 0.5
0.0600116 0.0432941 -0.00248143 0.5
0.0600116 0.0432941 0.00248143 0.5
0.0600116 0.0432941 0.0025 0.5
0.0600116 0.0432941 -0.0025 0.5
0.0600156 0.04329 0.0025 0.5
0.0600156 0.04329 -0.0025 0.5
0.0741759 0.0002775 0.0025 0.5
0.0741759 0.0002775 -0.0025 0.5
0.060016 0.043845 -2.29226e-20 0.5
0.0744538 0.000555 -0.0025 0.5
0.0744538 0.000555 0.0025 0.5
0.0600417 0.0443658 -0.00234604 0.5
0.0600417 0.0443658 0.00234604 0.5
0.0600417 0.0443658 0.0025 0.5
0.0600417 0.0443658 -0.0025 0.5
0.0600496 0.0444421 -0.00231037 0.5
0.0600496 0.0444421 0.00231037 0.5
0.0600782 0.0444 0.0025 0.5
0.0600782 0.0444 -0.0025 0.5
0.0600496 0.0444421 0.0025 0.5
0.0600496 0.0444421 -0.0025 0.5
0.0747316 0.0002775 0.0025 0.5
0.0747316 0.0002775 -0.0025 0.5
0.0750094 0.0002775 1.14375e-19 0.5
0.0600778 0.044955 2.79821e-20 0.5
0.0752872 0.0002775 0.0025 0.5
0.0752872 0.0002775 -0.0025 0.5
0.0600925 0.0454251 -0.00211762 0.5
0.0600925 0.0454251 0.00211762 0.5
0.0600925 0.0454251 0.0025 0.5
0.0600925 0.0454251 -0.0025 0.5
0.0601042 0.0456066 -0.00206478 0.5
0.0601042 0.0456066 0.00206478 0.5
0.0601631 0.04551 0.0025 0.5
0.0601631 0.04551 -0.0025 0.5
0.0601042 0.0456066 0.0025 0.5
0.0601042 0.0456066 -0.0025 0.5
0.075565 0.000555 -0.0025 0.5
0.075565 0.000555 0.0025 0.5
0.0601196 0.046065 0 0.5
0.0758428 0.0002775 0.0025 0.5
0.0758428 0.0002775 -0.0025 0.5
0.0601278 0.0464999 -0.00195885 0.5
0.0601278 0.0464999 0.00195885 0.5
0.0601278 0.0464999 0.0025 0.5
0.0601278 0.0464999 -0.0025 0.5
0.0761206 0.0002775 1.14623e-19 0.5
0.0602115 0.04662 0.0025 0.5
0.0602115 0.04662 -0.0025 0.5
0.0601374 0.0467498 -0.00191552 0.5
0.0601374 0.0467498 0.00191552 0.5
0.0601374 0.0467498 0.0025 0.5
0.0601374 0.0467498 -0.0025 0.5
0.0601458 0.047175 0 0.5
0.0763984 0.0002775 0.0025 0.5
0.0763984 0.0002775 -0.0025 0.5
0.0766763 0.000555 -0.0025 0.5
0.0766763 0.000555 0.0025 0.5
0.0601498 0.0475879 -0.00185988 0.5
0.0601498 0.0475879 0.00185988 0.5
0.0601498 0.0475879 0.0025 0.5
0.0601498 0.0475879 -0.0025 0.5
0.0602376 0.04773 0.0025 0.5
0.0602376 0.04773 -0.0025 0.5
0.0601555 0.0478778 0.00183427 0.5
0.0601555 0.0478778 -0.00183427 0.5
0.0601555 0.0478778 0.0025 0.5
0.0601555 0.0478778 -0.0025 0.5
0.0769541 0.0002775 0.0025 0.5
0.0769541 0.0002775 -0.0025 0.5
0.0601595 0.048285 -3.82936e-19 0.5
0.0772319 0.0002775 1.08196e-19 0.5
0.0601601 0.0486876 -0.00181346 0.5
0.0601601 0.0486876 0.00181346 0.5
0.0601601 0.0486876 0.0025 0.5
0.0601601 0.0486876 -0.0025 0.5
0.0775097 0.0002775 0.0025 0.5
0.0775097 0.0002775 -0.0025 0.5
0.0602475 0.04884 0.0025 0.5
0.0602475 0.04884 -0.0025 0.5
0.060161 0.0489933 -0.00180944 0.5
0.060161 0.0489933 0.00180944 0.5
0.060161 0.0489933 -0.0025 0.5
0.060161 0.0489933 0.0025 0.5
0.0777875 0.000555 -0.0025 0.5
0.0777875 0.000555 0.0025 0.5
0.0601616 0.049395 2.902e-18 0.5
0.0780653 0.0002775 0.0025 0.5
0.0780653 0.0002775 -0.0025 0.5
0.0601576 0.0498 -0.00182451 0.5
0.0601576 0.0498 0.00182451 0.5
0.0601576 0.0498 -0.0025 0.5
0.0601576 0.0498 0.0025 0.5
0.0602403 0.04995 -0.0025 0.5
0.0602403 0.04995 0.0025 0.5
0.060152 0.0500943 -0.00185001 0.5
0.060152 0.0500943 0.00185001 0.5
0.060152 0.0500943 -0.0025 0.5
0.060152 0.0500943 0.0025 0.5
0.0783431 0.0002775 8.26565e-20 0.5
0.060148 0.050505 -2.63817e-18 0.5
0.0786209 0.0002775 0.0025 0.5
0.0786209 0.0002775 -0.0025 0.5
0.0601396 0.0509281 -0.00190571 0.5
0.0601396 0.0509281 0.00190571 0.5
0.0601396 0.0509281 0.0025 0.5
0.0601396 0.0509281 -0.0025 0.5
0.0788988 0.000555 -0.0025 0.5
0.0788988 0.000555 0.0025 0.5
0.0601296 0.051182 -0.00195053 0.5
0.0601296 0.051182 0.00195053 0.5
0.0602141 0.05106 -0.0025 0.5
0.0602141 0.05106 0.0025 0.5
0.0601296 0.051182 0.0025 0.5
0.0601296 0.051182 -0.0025 0.5
0.0791766 0.0002775 0.0025 0.5
0.0791766 0.0002775 -0.0025 0.5
0.0601213 0.051615 2.75247e-18 0.5
0.0794544 0.0002775 9.54222e-20 0.5
0.0601069 0.0520707 -0.00205254 0.5
0.0601069 0.0520707 0.00205254 0.5
0.0601069 0.0520707 -0.0025 0.5
0.0601069 0.0520707 0.0025 0.5
0.0600955 0.0522579 -0.00210396 0.5
0.0600955 0.0522579 0.00210396 0.5
0.0601674 0.05217 -0.0025 0.5
0.0601674 0.05217 0.0025 0.5
0.0600955 0.0522579 0.0025 0.5
0.0600955 0.0522579 -0.0025 0.5
0.0797322 0.0002775 0.0025 0.5
0.0797322 0.0002775 -0.0025 0.5
0.0600817 0.052725 -2.52473e-18 0.5
0.08001 0.000555 -0.0025 0.5
0.08001 0.000555 0.0025 0.5
0.0600581 0.0532294 -0.00227216 0.5
0.0600581 0.0532294 0.00227216 0.5
0.0600581 0.0532294 -0.0025 0.5
0.0600581 0.0532294 0.0025 0.5
0.0802878 0.0002775 0.0025 0.5
0.0802878 0.0002775 -0.0025 0.5
0.0600499 0.0533223 0.00230944 0.5
0.0600499 0.0533223 -0.00230944 0.5
0.0600499 0.0533223 0.0025 0.5
0.0600499 0.0533223 -0.0025 0.5
0.0600927 0.05328 -0.0025 0.5
0.0600927 0.05328 0.0025 0.5
0.0805656 0.0002775 1.15842e-19 0.5
0.060028 0.053835 -3.66686e-18 0.5
0.0808434 0.0002775 0.0025 0.5
0.0808434 0.0002775 -0.0025 0.5
0.0600168 0.0543807 -0.00245796 0.5
0.0600168 0.0543807 0.00245796 0.5
0.0600168 0.0543807 -0.0025 0.5
0.0600168 0.0543807 0.0025 0.5
0.0600162 0.0543987 0.0024609 0.5
0.0600162 0.0543987 -0.0024609 0.5
0.0600162 0.0543987 0.0025 0.5
0.0600162 0.0543987 -0.0025 0.5
0.0600252 0.05439 0.0025 0.5
0.0600252 0.05439 -0.0025 0.5
0.0811213 0.000555 -0.0025 0.5
0.0811213 0.000555 0.0025 0.5
0.0600054 0.054945 3.83109e-18 0.5
0.0813991 0.0002775 0.0025 0.5
0.0813991 0.0002775 -0.0025 0.5
0.0600075 0.0550023 -0.0025 0.5
0.0600075 0.0550023 0.0025 0.5
0.0816769 0.0002775 9.5745e-20 0.5
0.0600004 0.0554929 0.00246789 0.5
0.0600004 0.0554929 -0.00246789 0.5
0.0599932 0.0555 -0.0025 0.5
0.0599932 0.0555 0.0025 0.5
0.0600004 0.0554929 0.0025 0.5
0.0600004 0.0554929 -0.0025 0.5
0.0600001 0.0555074 0.00246667 0.5
0.0600001 0.0555074 -0.00246667 0.5
0.0600001 0.0555074 0.0025 0.5
0.0600001 0.0555074 -0.0025 0.5
0.0819547 0.0002775 0.0025 0.5
0.0819547 0.0002775 -0.0025 0.5
0.0599949 0.056055 5.74865e-19 0.5
0.0822325 0.000555 -0.0025 0.5
0.0822325 0.000555 0.0025 0.5
0.0599858 0.0565883 -0.0024024 0.5
0.0599858 0.0565883 0.0024024 0.5
0.0599643 0.05661 -0.0025 0.5
0.0599643 0.05661 0.0025 0.5
0.0599858 0.0565883 -0.0025 0.5
0.0599858 0.0565883 0.0025 0.5
0.0599842 0.0566332 -0.00239535 0.5
0.0599842 0.0566332 0.00239535 0.5
0.0599842 0.0566332 -0.0025 0.5
0.0599842 0.0566332 0.0025 0.5
0.0825103 0.0002775 0.0025 0.5
0.0825103 0.0002775 -0.0025 0.5
0.0827881 0.0002775 8.32524e-20 0.5
0.0599748 0.057165 -2.20508e-18 0.5
0.0830659 0.0002775 0.0025 0.5
0.0830659 0.0002775 -0.0025 0.5
0.059963 0.0576755 -0.00229963 0.5
0.059963 0.0576755 0.00229963 0.5
0.059963 0.0576755 -0.0025 0.5
0.059963 0.0576755 0.0025 0.5
0.0599214 0.05772 0.0025 0.5
0.0599214 0.05772 -0.0025 0.5
0.0599585 0.0577689 -0.00227969 0.5
0.0599585 0.0577689 0.00227969 0.5
0.0599585 0.0577689 -0.0025 0.5
0.0599585 0.0577689 0.0025 0.5
0.0833437 0.000555 -0.0025 0.5
0.0833437 0.000555 0.0025 0.5
0.0599462 0.058275 1.02001e-18 0.5
0.0836216 0.0002775 0.0025 0.5
0.0836216 0.0002775 -0.0025 0.5
0.0838994 0.0002775 3.228e-22 0.5
0.059933 0.0587556 0.00216474 0.5
0.059933 0.0587556 -0.00216474 0.5
0.059933 0.0587556 0.0025 0.5
0.059933 0.0587556 -0.0025 0.5
0.0598696 0.05883 0.0025 0.5
0.0598696 0.05883 -0.0025 0.5
0.059924 0.0589134 0.00212451 0.5
0.059924 0.0589134 -0.00212451 0.5
0.059924 0.0589134 0.0025 0.5
0.059924 0.0589134 -0.0025 0.5
0.0841772 0.0002775 0.0025 0.5
0.0841772 0.0002775 -0.0025 0.5
0.0599103 0.059385 3.11496e-19 0.5
0.084455 0.000555 -0.0025 0.5
0.084455 0.000555 0.0025 0.5
0.0598969 0.0598295 0.00200247 0.5
0.0598969 0.0598295 -0.00200247 0.5
0.0598969 0.0598295 0.0025 0.5
0.0598969 0.0598295 -0.0025 0.5
0.0598136 0.05994 -0.0025 0.5
0.0598136 0.05994 0.0025 0.5
0.0847328 0.0002775 0.0025 0.5
0.0847328 0.0002775 -0.0025 0.5
0.0598823 0.060065 -0.00193676 0.5
0.0598823 0.060065 0.00193676 0.5
0.0598823 0.060065 0.0025 0.5
0.0598823 0.060065 -0.0025 0.5
0.0850106 0.0002775 0 0.5
0.0598686 0.060495 3.72166e-19 0.5
0.0852884 0.0002775 0.0025 0.5
0.0852884 0.0002775 -0.0025 0.5
0.0598563 0.060899 0.00181964 0.5
0.0598563 0.060899 -0.00181964 0.5
0.0598563 0.060899 0.0025 0.5
0.0598563 0.060899 -0.0025 0.5
0.0597582 0.06105 0.0025 0.5
0.0597582 0.06105 -0.0025 0.5
0.0855663 0.000555 -0.0025 0.5
0.0855663 0.000555 0.0025 0.5
0.0598361 0.0612212 0.00172877 0.5
0.0598361 0.0612212 -0.00172877 0.5
0.0598361 0.0612212 -0.0025 0.5
0.0598361 0.0612212 0.0025 0.5
0.0598237 0.061605 -5.04232e-19 0.5
0.0858441 0.0002775 0.0025 0.5
0.0858441 0.0002775 -0.0025 0.5
0.0861219 0.0002775 0 0.5
0.0598142 0.061967 0.00163044 0.5
0.0598142 0.061967 -0.00163044 0.5
0.0598142 0.061967 0.0025 0.5
0.0598142 0.061967 -0.0025 0.5
0.0597095 0.06216 0.0025 0.5
0.0597095 0.06216 -0.0025 0.5
0.0597924 0.0623749 0.00153215 0.5
0.0597924 0.0623749 -0.00153215 0.5
0.0863997 0.0002775 0.0025 0.5
0.0863997 0.0002775 -0.0025 0.5
0.0597924 0.0623749 0.0025 0.5
0.0597924 0.0623749 -0.0025 0.5
0.059783 0.062715 -1.48058e-20 0.5
0.0866775 0.000555 -0.0025 0.5
0.0866775 0.000555 0.0025 0.5
0.0597764 0.0630392 -0.00146022 0.5
0.0597764 0.0630392 0.00146022 0.5
0.0597764 0.0630392 0.0025 0.5
0.0597764 0.0630392 -0.0025 0.5
0.0869553 0.0002775 0.0025 0.5
0.0869553 0.0002775 -0.0025 0.5
0.0596716 0.06327 0.0025 0.5
0.0596716 0.06327 -0.0025 0.5
0.0597563 0.0635209 0.00136974 0.5
0.0597563 0.0635209 -0.00136974 0.5
0.0872331 0.0002775 0 0.5
0.0597563 0.0635209 0.0025 0.5
0.0597563 0.0635209 -0.0025 0.5
0.0597498 0.063825 -1.73601e-19 0.5
0.0875109 0.0002775 0.0025 0.5
0.0875109 0.0002775 -0.0025 0.5
0.0597455 0.0641183 -0.001321 0.5
0.0597455 0.0641183 0.001321 0.5
0.0597455 0.0641183 -0.0025 0.5
0.0597455 0.0641183 0.0025 0.5
0.0596442 0.06438 0.0025 0.5
0.0596442 0.06438 -0.0025 0.5
0.0877888 0.000555 -0.0025 0.5
0.0877888 0.000555 0.0025 0.5
0.0597292 0.064658 0.0025 0.5
0.0597292 0.064658 -0.0025 0.5
0.0880666 0.0002775 -0.00125 0.5
0.0880666 0.0002775 0.00125 0.5
0.0597278 0.0647503 -2.37687e-19 0.5
0.0880666 0.0002775 0.0025 0.5
0.0880666 0.0002775 -0.0025 0.5
0.0883444 0.0002775 0 0.5
0.0883444 0.00111 0.0025 0.5
0.0883444 0.00111 -0.0025 0.5
0.0883444 0.00222 0.0025 0.5
0.0883444 0.00222 -0.0025 0.5
0.0883444 0.00333 0.0025 0.5
0.0883444 0.00333 -0.0025 0.5
0.0597348 0.0652176 -0.00127278 0.5
0.0597348 0.0652176 0.00127278 0.5
0.0597348 0.0652176 0.0025 0.5
0.0597348 0.0652176 -0.0025 0.5
0.0883444 0.00444 0.0025 0.5
0.0883444 0.00444 -0.0025 0.5
0.0883444 0.00555 0.0025 0.5
0.0883444 0.00555 -0.0025 0.5
0.0886222 0.000555 0 0.5
0.0596584 0.06549 0.0025 0.5
0.0596584 0.06549 -0.0025 0.5
0.0883444 0.00666 0.0025 0.5
0.0883444 0.00666 -0.0025 0.5
0.0886222 0.0002775 -0.00125 0.5
0.0886222 0.0002775 0.00125 0.5
0.0886222 0.0008325 0.00125 0.5
0.0886222 0.0008325 -0.00125 0.5
0.0886222 0.001665 0 0.5
0.0886222 0.0002775 0.0025 0.5
0.0886222 0.0002775 -0.0025 0.5
0.0886222 0.0008325 0.0025 0.5
0.0886222 0.0008325 -0.0025 0.5
0.0886222 0.002775 0 0.5
0.0886222 0.0013875 0.0025 0.5
0.0886222 0.0013875 -0.0025 0.5
0.0886222 0.0019425 0.0025 0.5
0.0886222 0.0019425 -0.0025 0.5
0.0886222 0.0024975 0.0025 0.5
0.0886222 0.0024975 -0.0025 0.5
0.0886222 0.003885 0 0.5
0.0886222 0.0030525 0.0025 0.5
0.0886222 0.0030525 -0.0025 0.5
0.0883444 0.00777 0.0025 0.5
0.0883444 0.00777 -0.0025 0.5
0.0886222 0.0036075 0.0025 0.5
0.0886222 0.0036075 -0.0025 0.5
0.0886222 0.0041625 0.0025 0.5
0.0886222 0.0041625 -0.0025 0.5
0.0886222 0.004995 -1.81603e-19 0.5
0.0886222 0.0047175 0.0025 0.5
0.0886222 0.0047175 -0.0025 0.5
0.0886222 0.0052725 0.0025 0.5
0.0886222 0.0052725 -0.0025 0.5
0.0883444 0.00888 0.0025 0.5
0.0883444 0.00888 -0.0025 0.5
0.0886222 0.006105 -4.31797e-21 0.5
0.0886222 0.0058275 0.0025 0.5
0.0886222 0.0058275 -0.0025 0.5
0.0597689 0.0657283 0.00142635 0.5
0.0597689 0.0657283 -0.00142635 0.5
0.0597689 0.0657283 0.0025 0.5
0.0597689 0.0657283 -0.0025 0.5
0.0886222 0.0063825 0.0025 0.5
0.0886222 0.0063825 -0.0025 0.5
0.0886222 0.007215 3.76366e-21 0.5
0.0886222 0.0069375 -0.0025 0.5
0.0886222 0.0069375 0.0025 0.5
0.0883444 0.00999 0.0025 0.5
0.0883444 0.00999 -0.0025 0.5
0.0886222 0.0074925 -0.0025 0.5
0.0886222 0.0074925 0.0025 0.5
0.0886222 0.008325 1.10296e-21 0.5
0.0886222 0.0080475 -0.0025 0.5
0.0886222 0.0080475 0.0025 0.5
0.0600075 0.0657554 -0.0025 0.5
0.0600075 0.0657554 0.0025 0.5
0.0886222 0.0086025 -0.0025 0.5
0.0886222 0.0086025 0.0025 0.5
0.0883444 0.0111 0.0025 0.5
0.0883444 0.0111 -0.0025 0.5
0.0597791 0.066045 -1.60807e-20 0.5
0.0886222 0.009435 1.92878e-21 0.5
0.0886222 0.0091575 0.0025 0.5
0.0886222 0.0091575 -0.0025 0.5
0.0886222 0.0097125 0.0025 0.5
0.0886222 0.0097125 -0.0025 0.5
0.0883444 0.01221 0.0025 0.5
0.0883444 0.01221 -0.0025 0.5
0.0886222 0.010545 3.88923e-21 0.5
0.0886222 0.0102675 0.0025 0.5
0.0886222 0.0102675 -0.0025 0.5
0.0886222 0.0108225 0.0025 0.5
0.0886222 0.0108225 -0.0025 0.5
0.0883444 0.01332 0.0025 0.5
0.0883444 0.01332 -0.0025 0.5
0.0886222 0.0113775 0.0025 0.5
0.0886222 0.0113775 -0.0025 0.5
0.0886222 0.011655 2.78619e-21 0.5
0.0886222 0.0119325 0.0025 0.5
0.0886222 0.0119325 -0.0025 0.5
0.0886222 0.0124875 -0.0025 0.5
0.0886222 0.0124875 0.0025 0.5
0.0886222 0.012765 1.81655e-19 0.5
0.0883444 0.01443 0.0025 0.5
0.0883444 0.01443 -0.0025 0.5
0.0886222 0.0130425 -0.0025 0.5
0.0886222 0.0130425 0.0025 0.5
0.0602853 0.0663225 0.0025 0.5
0.0602853 0.0663225 -0.0025 0.5
0.0886222 0.0135975 0.0025 0.5
0.0886222 0.0135975 -0.0025 0.5
0.0886222 0.013875 0 0.5
0.0883444 0.01554 0.0025 0.5
0.0883444 0.01554 -0.0025 0.5
0.0886222 0.0141525 0.0025 0.5
0.0886222 0.0141525 -0.0025 0.5
0.0605631 0.0663225 0 0.5
0.0886222 0.0147075 -0.0025 0.5
0.0886222 0.0147075 0.0025 0.5
0.0886222 0.014985 7.52748e-21 0.5
0.0883444 0.01665 0.0025 0.5
0.0883444 0.01665 -0.0025 0.5
0.0886222 0.0152625 -0.0025 0.5
0.0886222 0.0152625 0.0025 0.5
0.0611187 0.066045 -0.0025 0.5
0.0611187 0.066045 0.0025 0.5
0.0608409 0.0663225 0.0025 0.5