# f_l  POINT_DATA 1315
#  x  y  z  f_l
0.059503 0.00111 0.0025 0.5
0.059503 0.00111 -0.0025 0.5
0.0595433 0.001664 4.52226e-20 0.5
0.0594832 0.00222 0.0025 0.5
0.0594832 0.00222 -0.0025 0.5
0.0595459 0.00157111 -0.0025 0.5
0.0595459 0.00157111 0.0025 0.5
0.0595429 0.00175588 -0.0025 0.5
0.0595429 0.00175588 0.0025 0.5
0.0596311 0.000672496 -1.58258e-19 0.5
0.0595806 0.00277666 0 0.5
0.0595117 0.00333 0.0025 0.5
0.0595117 0.00333 -0.0025 0.5
0.0596283 0.000731244 0.0025 0.5
0.0596283 0.000731244 -0.0025 0.5
0.0595781 0.00264889 0.0025 0.5
0.0595781 0.00264889 -0.0025 0.5
0.0595831 0.00290609 0.0025 0.5
0.0595831 0.00290609 -0.0025 0.5
0.0596176 0.0038873 0 0.5
0.0595433 0.00444 0.0025 0.5
0.0595433 0.00444 -0.0025 0.5
0.0596143 0.0037228 0.0025 0.5
0.0596143 0.0037228 -0.0025 0.5
0.0596212 0.00405411 0.0025 0.5
0.0596212 0.00405411 -0.0025 0.5
0.0596592 0.00499836 -2.01845e-21 0.5
0.0595813 0.00555 0.0025 0.5
0.0595813 0.00555 -0.0025 0.5
0.0596543 0.00479279 0.0025 0.5
0.0596543 0.00479279 -0.0025 0.5
0.0596644 0.00520728 0.0025 0.5
0.0596644 0.00520728 -0.0025 0.5
0.0597049 0.00610962 -1.21692e-20 0.5
0.0596982 0.00585899 0.0025 0.5
0.0596982 0.00585899 -0.0025 0.5
0.0596256 0.00666 0.0025 0.5
0.0596256 0.00666 -0.0025 0.5
0.0600075 0.000777114 -0.0025 0.5
0.0600075 0.000777114 0.0025 0.5
0.059712 0.00636488 0.0025 0.5
0.059712 0.00636488 -0.0025 0.5
0.0597441 0.00692313 0.00131472 0.5
0.0597441 0.00692313 -0.00131472 0.5
0.0597522 0.007215 -5.95091e-21 0.5
0.0597441 0.00692313 0.0025 0.5
0.0597441 0.00692313 -0.0025 0.5
0.0596751 0.00777 0.0025 0.5
0.0596751 0.00777 -0.0025 0.5
0.0597619 0.00752466 -0.00139484 0.5
0.0597619 0.00752466 0.00139484 0.5
0.0597619 0.00752466 0.0025 0.5
0.0597619 0.00752466 -0.0025 0.5
0.0602853 0.0002775 0.0025 0.5
0.0602853 0.0002775 -0.0025 0.5
0.0597899 0.00798736 0.00152092 0.5
0.0597899 0.00798736 -0.00152092 0.5
0.0597899 0.00798736 0.0025 0.5
0.0597899 0.00798736 -0.0025 0.5
0.0597998 0.008325 -2.18434e-19 0.5
0.0597275 0.00888 0.0025 0.5
0.0597275 0.00888 -0.0025 0.5
0.059811 0.0086837 0.00161578 0.5
0.059811 0.0086837 -0.00161578 0.5
0.059811 0.0086837 0.0025 0.5
0.059811 0.0086837 -0.0025 0.5
0.0598333 0.00905398 0.00171631 0.5
0.0598333 0.00905398 -0.00171631 0.5
0.0605631 0.0002775 -9.93434e-23 0.5
0.0598333 0.00905398 0.0025 0.5
0.0598333 0.00905398 -0.0025 0.5
0.0598445 0.009435 -2.10566e-19 0.5
0.0597846 0.00999 0.0025 0.5
0.0597846 0.00999 -0.0025 0.5
0.0598594 0.00984206 -0.0018336 0.5
0.0598594 0.00984206 0.0018336 0.5
0.0598594 0.00984206 0.0025 0.5
0.0598594 0.00984206 -0.0025 0.5
0.0598746 0.0101227 0.00190206 0.5
0.0598746 0.0101227 -0.00190206 0.5
0.0598746 0.0101227 0.0025 0.5
0.0598746 0.0101227 -0.0025 0.5
0.0598895 0.010545 -1.95664e-20 0.5
0.0608409 0.0002775 0.0025 0.5
0.0608409 0.0002775 -0.0025 0.5
0.0598837 0.0111 0.0025 0.5
0.0598837 0.0111 -0.0025 0.5
0.0599286 0.0110212 -0.00214505 0.5
0.0599286 0.0110212 0.00214505 0.5
0.0599286 0.0110212 0.0025 0.5
0.0599286 0.0110212 -0.0025 0.5
0.0599355 0.0111719 0.0021762 0.5
0.0599355 0.0111719 -0.0021762 0.5
0.0599355 0.0111719 0.0025 0.5
0.0599355 0.0111719 -0.0025 0.5
0.0599784 0.011655 3.58345e-19 0.5
0.0611187 0.000555 -0.0025 0.5
0.0611187 0.000555 0.0025 0.5
0.0600075 0.0120003 0.0025 0.5
0.0600075 0.0120003 -0.0025 0.5
0.0600243 0.0121932 -0.00242434 0.5
0.0600243 0.0121932 0.00242434 0.5
0.0600243 0.0121932 0.0025 0.5
0.0600243 0.0121932 -0.0025 0.5
0.0600294 0.0122319 -0.00240131 0.5
0.0600294 0.0122319 0.00240131 0.5
0.0600294 0.0122319 0.0025 0.5
0.0600294 0.0122319 -0.0025 0.5
0.0600387 0.01221 0.0025 0.5
0.0600387 0.01221 -0.0025 0.5
0.060079 0.012765 -5.73663e-19 0.5
0.0613966 0.0002775 -0.0025 0.5
0.0613966 0.0002775 0.0025 0.5
0.060121 0.0132066 0.00198919 0.5
0.060121 0.0132066 -0.00198919 0.5
0.060121 0.0132066 0.0025 0.5
0.060121 0.0132066 -0.0025 0.5
0.0616744 0.0002775 0 0.5
0.0601619 0.0134742 -0.00180519 0.5
0.0601619 0.0134742 0.00180519 0.5
0.0601955 0.01332 0.0025 0.5
0.0601955 0.01332 -0.0025 0.5
0.0601619 0.0134742 0.0025 0.5
0.0601619 0.0134742 -0.0025 0.5
0.0602043 0.013875 -2.19523e-19 0.5
0.0602397 0.014198 -0.00145502 0.5
0.0602397 0.014198 0.00145502 0.5
0.0602397 0.014198 0.0025 0.5
0.0602397 0.014198 -0.0025 0.5
0.0619522 0.0002775 -0.0025 0.5
0.0619522 0.0002775 0.0025 0.5
0.0603469 0.01443 0.0025 0.5
0.0603469 0.01443 -0.0025 0.5
0.0603428 0.0147649 0.0025 0.5
0.0603428 0.0147649 -0.0025 0.5
0.0603684 0.0149686 2.36537e-19 0.5
0.06223 0.000555 -0.0025 0.5
0.06223 0.000555 0.0025 0.5
0.0603922 0.0151557 0.0025 0.5
0.0603922 0.0151557 -0.0025 0.5
0.0604945 0.01554 0.0025 0.5
0.0604945 0.01554 -0.0025 0.5
0.0625078 0.0002775 0.0025 0.5
0.0625078 0.0002775 -0.0025 0.5
0.0605979 0.016081 1.67598e-20 0.5
0.0605971 0.0160611 -0.0025 0.5
0.0605971 0.0160611 0.0025 0.5
0.0606053 0.0161371 -0.0025 0.5
0.0606053 0.0161371 0.0025 0.5
0.0627856 0.0002775 3.76374e-21 0.5
0.0606357 0.01665 0.0025 0.5
0.0606357 0.01665 -0.0025 0.5
0.0630634 0.0002775 -0.0025 0.5
0.0630634 0.0002775 0.0025 0.5
0.0607733 0.0169951 0.0025 0.5
0.0607733 0.0169951 -0.0025 0.5
0.0607932 0.0172186 0 0.5
0.0608142 0.0174558 0.0025 0.5
0.0608142 0.0174558 -0.0025 0.5
0.0607674 0.01776 0.0025 0.5
0.0607674 0.01776 -0.0025 0.5
0.0633413 0.000555 -0.0025 0.5
0.0633413 0.000555 0.0025 0.5
0.0608991 0.0179794 0.00151184 0.5
0.0608991 0.0179794 -0.00151184 0.5
0.0608991 0.0179794 0.0025 0.5
0.0608991 0.0179794 -0.0025 0.5
0.0609243 0.018315 -1.61486e-20 0.5
0.0636191 0.0002775 0.0025 0.5
0.0636191 0.0002775 -0.0025 0.5
0.0609509 0.0187024 -0.00174491 0.5
0.0609509 0.0187024 0.00174491 0.5
0.0608872 0.01887 0.0025 0.5
0.0608872 0.01887 -0.0025 0.5
0.0609509 0.0187024 0.0025 0.5
0.0609509 0.0187024 -0.0025 0.5
0.0638969 0.0002775 -5.95927e-22 0.5
0.0609891 0.0189995 0.00191678 0.5
0.0609891 0.0189995 -0.00191678 0.5
0.0609891 0.0189995 0.0025 0.5
0.0609891 0.0189995 -0.0025 0.5
0.0610148 0.019425 3.42988e-20 0.5
0.0641747 0.0002775 0.0025 0.5
0.0641747 0.0002775 -0.0025 0.5
0.0610289 0.01998 0.0025 0.5
0.0610289 0.01998 -0.0025 0.5
0.0610623 0.0199236 -0.00224613 0.5
0.0610623 0.0199236 0.00224613 0.5
0.0610623 0.0199236 0.0025 0.5
0.0610623 0.0199236 -0.0025 0.5
0.0610717 0.020027 0.00228811 0.5
0.0610717 0.020027 -0.00228811 0.5
0.0610717 0.020027 0.0025 0.5
0.0610717 0.020027 -0.0025 0.5
0.0611206 0.020535 1.74915e-20 0.5
0.0611187 0.020412 -0.0025 0.5
0.0611187 0.020412 0.0025 0.5
0.0644525 0.000555 -0.0025 0.5
0.0644525 0.000555 0.0025 0.5
0.0611897 0.0210192 -0.00218099 0.5
0.0611897 0.0210192 0.00218099 0.5
0.0611897 0.0210192 0.0025 0.5
0.0611897 0.0210192 -0.0025 0.5
0.0647303 0.0002775 0.0025 0.5
0.0647303 0.0002775 -0.0025 0.5
0.0612362 0.0212073 -0.00197149 0.5
0.0612362 0.0212073 0.00197149 0.5
0.061262 0.02109 0.0025 0.5
0.061262 0.02109 -0.0025 0.5
0.0612362 0.0212073 0.0025 0.5
0.0612362 0.0212073 -0.0025 0.5
0.0650081 0.0002775 0 0.5
0.0613112 0.021645 -7.79266e-20 0.5
0.0613559 0.0219631 -0.00143274 0.5
0.0613559 0.0219631 0.00143274 0.5
0.0613559 0.0219631 0.0025 0.5
0.0613559 0.0219631 -0.0025 0.5
0.0652859 0.0002775 0.0025 0.5
0.0652859 0.0002775 -0.0025 0.5
0.0615013 0.0222 0.0025 0.5
0.0615013 0.0222 -0.0025 0.5
0.06153 0.0226108 0.0025 0.5
0.06153 0.0226108 -0.0025 0.5
0.0655638 0.000555 -0.0025 0.5
0.0655638 0.000555 0.0025 0.5
0.0615626 0.0227864 -1.19328e-19 0.5
0.0615705 0.0228588 -0.0025 0.5
0.0615705 0.0228588 0.0025 0.5
0.0658416 0.0002775 0.0025 0.5
0.0658416 0.0002775 -0.0025 0.5
0.061693 0.02331 0.0025 0.5
0.061693 0.02331 -0.0025 0.5
0.0661194 0.0002775 -1.81913e-21 0.5
0.0618323 0.0237072 -0.0025 0.5
0.0618323 0.0237072 0.0025 0.5
0.0618541 0.0238799 -1.09585e-18 0.5
0.0618772 0.0240676 0.0025 0.5
0.0618772 0.0240676 -0.0025 0.5
0.0663972 0.0002775 0.0025 0.5
0.0663972 0.0002775 -0.0025 0.5
0.0618601 0.02442 0.0025 0.5
0.0618601 0.02442 -0.0025 0.5
0.066675 0.000555 -0.0025 0.5
0.066675 0.000555 0.0025 0.5
0.0620017 0.0246481 -0.00147269 0.5
0.0620017 0.0246481 0.00147269 0.5
0.0620017 0.0246481 -0.0025 0.5
0.0620017 0.0246481 0.0025 0.5
0.0620333 0.024975 1.80398e-18 0.5
0.0669528 0.0002775 0.0025 0.5
0.0669528 0.0002775 -0.0025 0.5
0.0620655 0.0253657 -0.00175983 0.5
0.0620655 0.0253657 0.00175983 0.5
0.0620655 0.0253657 -0.0025 0.5
0.0620655 0.0253657 0.0025 0.5
0.062007 0.02553 0.0025 0.5
0.062007 0.02553 -0.0025 0.5
0.0621089 0.025651 0.00195506 0.5
0.0621089 0.025651 -0.00195506 0.5
0.0672306 0.0002775 9.10876e-20 0.5
0.0621089 0.025651 0.0025 0.5
0.0621089 0.025651 -0.0025 0.5
0.0621396 0.026085 -5.45144e-19 0.5
0.0675084 0.0002775 0.0025 0.5
0.0675084 0.0002775 -0.0025 0.5
0.0621257 0.02664 0.0025 0.5
0.0621257 0.02664 -0.0025 0.5
0.0621659 0.026576 -0.00221166 0.5
0.0621659 0.026576 0.00221166 0.5
0.0621659 0.026576 -0.0025 0.5
0.0621659 0.026576 0.0025 0.5
0.0621778 0.0266922 0.00226493 0.5
0.0621778 0.0266922 -0.00226493 0.5
0.0621778 0.0266922 0.0025 0.5
0.0621778 0.0266922 -0.0025 0.5
0.0677863 0.000555 -0.0025 0.5
0.0677863 0.000555 0.0025 0.5
0.0622021 0.027195 7.2143e-19 0.5
0.06223 0.027241 0.0025 0.5
0.06223 0.027241 -0.0025 0.5
0.0680641 0.0002775 0.0025 0.5
0.0680641 0.0002775 -0.0025 0.5
0.0622709 0.0277091 -0.00231591 0.5
0.0622709 0.0277091 0.00231591 0.5
0.0622709 0.0277091 0.0025 0.5
0.0622709 0.0277091 -0.0025 0.5
0.0622975 0.0278175 -0.00219608 0.5
0.0622975 0.0278175 0.00219608 0.5
0.0623208 0.02775 0.0025 0.5
0.0623208 0.02775 -0.0025 0.5
0.0622975 0.0278175 0.0025 0.5
0.0622975 0.0278175 -0.0025 0.5
0.0683419 0.0002775 1.14121e-19 0.5
0.0623771 0.028305 -9.90921e-19 0.5
0.0686197 0.0002775 0.0025 0.5
0.0686197 0.0002775 -0.0025 0.5
0.0624208 0.0286694 -0.00164132 0.5
0.0624208 0.0286694 0.00164132 0.5
0.0624208 0.0286694 0.0025 0.5
0.0624208 0.0286694 -0.0025 0.5
0.0688975 0.000555 -0.0025 0.5
0.0688975 0.000555 0.0025 0.5
0.0625649 0.02886 0.0025 0.5
0.0625649 0.02886 -0.0025 0.5
0.0625561 0.0291857 0.0025 0.5
0.0625561 0.0291857 -0.0025 0.5
0.0625873 0.0293957 1.4668e-19 0.5
0.0691753 0.0002775 0.0025 0.5
0.0691753 0.0002775 -0.0025 0.5
0.0626142 0.0295862 0.0025 0.5
0.0626142 0.0295862 -0.0025 0.5
0.0694531 0.0002775 9.36031e-20 0.5
0.0627568 0.02997 0.0025 0.5
0.0627568 0.02997 -0.0025 0.5
0.0697309 0.0002775 0.0025 0.5
0.0697309 0.0002775 -0.0025 0.5
0.0628853 0.0304953 1.70684e-19 0.5
0.0628801 0.0304307 0.0025 0.5
0.0628801 0.0304307 -0.0025 0.5
0.0629096 0.0306489 0.0025 0.5
0.0629096 0.0306489 -0.0025 0.5
0.0700088 0.000555 -0.0025 0.5
0.0700088 0.000555 0.0025 0.5
0.0629247 0.03108 0.0025 0.5
0.0629247 0.03108 -0.0025 0.5
0.0702866 0.0002775 0.0025 0.5
0.0702866 0.0002775 -0.0025 0.5
0.06307 0.031351 0.0012794 0.5
0.06307 0.031351 -0.0012794 0.5
0.06307 0.031351 0.0025 0.5
0.06307 0.031351 -0.0025 0.5
0.0705644 0.0002775 2.66209e-19 0.5
0.0630991 0.031635 5.63014e-20 0.5
0.0631383 0.0319873 -0.00158688 0.5
0.0631383 0.0319873 0.00158688 0.5
0.0631383 0.0319873 0.0025 0.5
0.0631383 0.0319873 -0.0025 0.5
0.06309 0.03219 0.0025 0.5
0.06309 0.03219 -0.0025 0.5
0.0708422 0.0002775 0.0025 0.5
0.0708422 0.0002775 -0.0025 0.5
0.063206 0.0323251 0.00189148 0.5
0.063206 0.0323251 -0.00189148 0.5
0.063206 0.0323251 -0.0025 0.5
0.063206 0.0323251 0.0025 0.5
0.07112 0.000555 -0.0025 0.5
0.07112 0.000555 0.0025 0.5
0.0632443 0.032745 -4.25793e-20 0.5
0.0713978 0.0002775 0.0025 0.5
0.0713978 0.0002775 -0.0025 0.5
0.0632703 0.0332291 0.00218079 0.5
0.0632703 0.0332291 -0.00218079 0.5
0.0632269 0.0333 0.0025 0.5
0.0632269 0.0333 -0.0025 0.5
0.0632703 0.0332291 -0.0025 0.5
0.0632703 0.0332291 0.0025 0.5
0.0632834 0.0333577 0.0022399 0.5
0.0632834 0.0333577 -0.0022399 0.5
0.0632834 0.0333577 0.0025 0.5
0.0632834 0.0333577 -0.0025 0.5
0.0716756 0.0002775 9.36031e-20 0.5
0.0633076 0.033855 -4.96824e-20 0.5
0.0719534 0.0002775 0.0025 0.5
0.0719534 0.0002775 -0.0025 0.5
0.0633013 0.03441 0.0025 0.5
0.0633013 0.03441 -0.0025 0.5
0.0633196 0.0343884 -0.00240254 0.5
0.0633196 0.0343884 0.00240254 0.5
0.0633196 0.0343884 0.0025 0.5
0.0633196 0.0343884 -0.0025 0.5
0.0633214 0.0344298 0.00241074 0.5
0.0633214 0.0344298 -0.00241074 0.5
0.0633214 0.0344298 0.0025 0.5
0.0633214 0.0344298 -0.0025 0.5
0.0722313 0.000555 -0.0025 0.5
0.0722313 0.000555 0.0025 0.5
0.0633329 0.034965 8.63586e-20 0.5
0.0633413 0.0348604 -0.0025 0.5
0.0633413 0.0348604 0.0025 0.5
0.0725091 0.0002775 0.0025 0.5
0.0725091 0.0002775 -0.0025 0.5
0.063369 0.0354923 -0.00237503 0.5
0.063369 0.0354923 0.00237503 0.5
0.063369 0.0354923 0.0025 0.5
0.063369 0.0354923 -0.0025 0.5
0.0633773 0.035556 -0.00233767 0.5
0.0633773 0.035556 0.00233767 0.5
0.0633773 0.035556 0.0025 0.5
0.0633773 0.035556 -0.0025 0.5
0.0634002 0.03552 0.0025 0.5
0.0634002 0.03552 -0.0025 0.5
0.0727869 0.0002775 1.145e-19 0.5
0.0634172 0.036075 3.95814e-20 0.5
0.0730647 0.0002775 0.0025 0.5
0.0730647 0.0002775 -0.0025 0.5
0.0634537 0.0365177 -0.00199426 0.5
0.0634537 0.0365177 0.00199426 0.5
0.0634537 0.0365177 0.0025 0.5
0.0634537 0.0365177 -0.0025 0.5
0.0733425 0.000555 -0.0025 0.5
0.0733425 0.000555 0.0025 0.5
0.0635549 0.03663 0.0025 0.5
0.0635549 0.03663 -0.0025 0.5
0.0635022 0.0367907 -0.00177596 0.5
0.0635022 0.0367907 0.00177596 0.5
0.0635022 0.0367907 0.0025 0.5
0.0635022 0.0367907 -0.0025 0.5
0.0635409 0.037185 1.26995e-18 0.5
0.0736203 0.0002775 0.0025 0.5
0.0736203 0.0002775 -0.0025 0.5
0.0635657 0.0375158 -0.00148998 0.5
0.0635657 0.0375158 0.00148998 0.5
0.0635657 0.0375158 0.0025 0.5
0.0635657 0.0375158 -0.0025 0.5
0.0738981 0.0002775 1.12679e-19 0.5
0.0636963 0.03774 0.0025 0.5
0.0636963 0.03774 -0.0025 0.5
0.0636526 0.038051 0.0025 0.5
0.0636526 0.038051 -0.0025 0.5
0.0741759 0.0002775 0.0025 0.5
0.0741759 0.0002775 -0.0025 0.5
0.0636719 0.038283 -1.02873e-18 0.5
0.0636888 0.0385028 0.0025 0.5
0.0636888 0.0385028 -0.0025 0.5
0.0744538 0.000555 -0.0025 0.5
0.0744538 0.000555 0.0025 0.5
0.0638065 0.03885 0.0025 0.5
0.0638065 0.03885 -0.0025 0.5
0.0747316 0.0002775 0.0025 0.5
0.0747316 0.0002775 -0.0025 0.5
0.0638128 0.039321 0.0025 0.5
0.0638128 0.039321 -0.0025 0.5
0.0638189 0.0394011 3.91251e-21 0.5
0.0750094 0.0002775 1.14375e-19 0.5
0.0638244 0.0394774 0.0025 0.5
0.0638244 0.0394774 -0.0025 0.5
0.0752872 0.0002775 0.0025 0.5
0.0752872 0.0002775 -0.0025 0.5
0.063894 0.03996 0.0025 0.5
0.063894 0.03996 -0.0025 0.5
0.075565 0.000555 -0.0025 0.5
0.075565 0.000555 0.0025 0.5
0.063959 0.0404743 2.12244e-21 0.5
0.0639601 0.0404519 0.0025 0.5
0.0639601 0.0404519 -0.0025 0.5
0.0639678 0.0405858 0.0025 0.5
0.0639678 0.0405858 -0.0025 0.5
0.0758428 0.0002775 0.0025 0.5
0.0758428 0.0002775 -0.0025 0.5
0.0639626 0.04107 0.0025 0.5
0.0639626 0.04107 -0.0025 0.5
0.0761206 0.0002775 1.14623e-19 0.5
0.0640528 0.0414693 0.0025 0.5
0.0640528 0.0414693 -0.0025 0.5
0.0640595 0.0416293 6.07515e-22 0.5
0.0763984 0.0002775 0.0025 0.5
0.0763984 0.0002775 -0.0025 0.5
0.0640658 0.0417937 0.0025 0.5
0.0640658 0.0417937 -0.0025 0.5
0.064015 0.04218 0.0025 0.5
0.064015 0.04218 -0.0025 0.5
0.0766763 0.000555 -0.0025 0.5
0.0766763 0.000555 0.0025 0.5
0.0641144 0.0425178 0.0025 0.5
0.0641144 0.0425178 -0.0025 0.5
0.0769541 0.0002775 0.0025 0.5
0.0769541 0.0002775 -0.0025 0.5
0.0641208 0.0427391 0 0.5
0.0641267 0.0429646 0.0025 0.5
0.0641267 0.0429646 -0.0025 0.5
0.0772319 0.0002775 1.08196e-19 0.5
0.0640536 0.04329 0.0025 0.5
0.0640536 0.04329 -0.0025 0.5
0.0775097 0.0002775 0.0025 0.5
0.0775097 0.0002775 -0.0025 0.5
0.0641548 0.0435874 0.0025 0.5
0.0641548 0.0435874 -0.0025 0.5
0.0641598 0.0438481 5.42101e-20 0.5
0.0777875 0.000555 -0.0025 0.5
0.0777875 0.000555 0.0025 0.5
0.0641642 0.044112 0.0025 0.5
0.0641642 0.044112 -0.0025 0.5
0.0640797 0.0444 -0.0025 0.5
0.0640797 0.0444 0.0025 0.5
0.0780653 0.0002775 0.0025 0.5
0.0780653 0.0002775 -0.0025 0.5
0.0641795 0.0446727 0.00127155 0.5
0.0641795 0.0446727 -0.00127155 0.5
0.0641795 0.0446727 0.0025 0.5
0.0641795 0.0446727 -0.0025 0.5
0.0783431 0.0002775 8.26565e-20 0.5
0.0641833 0.044955 -6.84083e-19 0.5
0.0641853 0.0452431 -0.00129787 0.5
0.0641853 0.0452431 0.00129787 0.5
0.0641853 0.0452431 -0.0025 0.5
0.0641853 0.0452431 0.0025 0.5
0.0640951 0.04551 0.0025 0.5
0.0640951 0.04551 -0.0025 0.5
0.0786209 0.0002775 0.0025 0.5
0.0786209 0.0002775 -0.0025 0.5
0.0641928 0.0457695 0.00133128 0.5
0.0641928 0.0457695 -0.00133128 0.5
0.0641928 0.0457695 0.0025 0.5
0.0641928 0.0457695 -0.0025 0.5
0.0788988 0.000555 -0.0025 0.5
0.0788988 0.000555 0.0025 0.5
0.0641948 0.046065 -1.83716e-18 0.5
0.0641959 0.0463637 0.00134562 0.5
0.0641959 0.0463637 -0.00134562 0.5
0.0791766 0.0002775 0.0025 0.5
0.0791766 0.0002775 -0.0025 0.5
0.0641959 0.0463637 0.0025 0.5
0.0641959 0.0463637 -0.0025 0.5
0.0641033 0.04662 0.0025 0.5
0.0641033 0.04662 -0.0025 0.5
0.0794544 0.0002775 9.54222e-20 0.5
0.0641997 0.0468725 0.00136266 0.5
0.0641997 0.0468725 -0.00136266 0.5
0.0641997 0.0468725 0.0025 0.5
0.0641997 0.0468725 -0.0025 0.5
0.0642008 0.047175 2.52238e-18 0.5
0.0797322 0.0002775 0.0025 0.5
0.0797322 0.0002775 -0.0025 0.5
0.0642004 0.0474782 -0.00136582 0.5
0.0642004 0.0474782 0.00136582 0.5
0.0642004 0.0474782 -0.0025 0.5
0.0642004 0.0474782 0.0025 0.5
0.064105 0.04773 -0.0025 0.5
0.064105 0.04773 0.0025 0.5
0.08001 0.000555 -0.0025 0.5
0.08001 0.000555 0.0025 0.5
0.064199 0.0479832 0.00135954 0.5
0.064199 0.0479832 -0.00135954 0.5
0.064199 0.0479832 -0.0025 0.5
0.064199 0.0479832 0.0025 0.5
0.0802878 0.0002775 0.0025 0.5
0.0802878 0.0002775 -0.0025 0.5
0.0641986 0.048285 -2.78844e-18 0.5
0.0641961 0.0485839 -0.00134631 0.5
0.0641961 0.0485839 0.00134631 0.5
0.0641961 0.0485839 0.0025 0.5
0.0641961 0.0485839 -0.0025 0.5
0.0805656 0.0002775 1.15842e-19 0.5
0.0640975 0.04884 -0.0025 0.5
0.0640975 0.04884 0.0025 0.5
0.0641872 0.049105 0.00130638 0.5
0.0641872 0.049105 -0.00130638 0.5
0.0641872 0.049105 0.0025 0.5
0.0641872 0.049105 -0.0025 0.5
0.0808434 0.0002775 0.0025 0.5
0.0808434 0.0002775 -0.0025 0.5
0.0641847 0.049395 2.9429e-18 0.5
0.0811213 0.000555 -0.0025 0.5
0.0811213 0.000555 0.0025 0.5
0.0641805 0.0496783 -0.00127601 0.5
0.0641805 0.0496783 0.00127601 0.5
0.0641805 0.0496783 0.0025 0.5
0.0641805 0.0496783 -0.0025 0.5
0.0640799 0.04995 0.0025 0.5
0.0640799 0.04995 -0.0025 0.5
0.0813991 0.0002775 0.0025 0.5
0.0813991 0.0002775 -0.0025 0.5
0.0641634 0.0502388 0.0025 0.5
0.0641634 0.0502388 -0.0025 0.5
0.0641587 0.0505017 1.64575e-18 0.5
0.0816769 0.0002775 9.5745e-20 0.5
0.0641534 0.0507612 0.0025 0.5
0.0641534 0.0507612 -0.0025 0.5
0.064052 0.05106 0.0025 0.5
0.064052 0.05106 -0.0025 0.5
0.0819547 0.0002775 0.0025 0.5
0.0819547 0.0002775 -0.0025 0.5
0.0641241 0.051388 0.0025 0.5
0.0641241 0.051388 -0.0025 0.5
0.0822325 0.000555 -0.0025 0.5
0.0822325 0.000555 0.0025 0.5
0.0641182 0.0516109 -2.75425e-18 0.5
0.0641119 0.0518297 0.0025 0.5
0.0641119 0.0518297 -0.0025 0.5
0.0825103 0.0002775 0.0025 0.5
0.0825103 0.0002775 -0.0025 0.5
0.0640134 0.05217 0.0025 0.5
0.0640134 0.05217 -0.0025 0.5
0.0827881 0.0002775 8.32524e-20 0.5
0.0640641 0.052558 0.0025 0.5
0.0640641 0.052558 -0.0025 0.5
0.0640582 0.052721 3.27539e-18 0.5
0.064052 0.0528799 0.0025 0.5
0.064052 0.0528799 -0.0025 0.5
0.0830659 0.0002775 0.0025 0.5
0.0830659 0.0002775 -0.0025 0.5
0.0639643 0.05328 0.0025 0.5
0.0639643 0.05328 -0.0025 0.5
0.0833437 0.000555 -0.0025 0.5
0.0833437 0.000555 0.0025 0.5
0.0639756 0.0537564 0.0025 0.5
0.0639756 0.0537564 -0.0025 0.5
0.0639719 0.0538326 -2.45261e-18 0.5
0.0836216 0.0002775 0.0025 0.5
0.0836216 0.0002775 -0.0025 0.5
0.0639682 0.0539063 0.0025 0.5
0.0639682 0.0539063 -0.0025 0.5
0.0838994 0.0002775 3.228e-22 0.5
0.0639057 0.05439 -0.0025 0.5
0.0639057 0.05439 0.0025 0.5
0.0841772 0.0002775 0.0025 0.5
0.0841772 0.0002775 -0.0025 0.5
0.0638563 0.0549141 -2.61402e-18 0.5
0.0638555 0.0549037 -0.0025 0.5
0.0638555 0.0549037 0.0025 0.5
0.0638504 0.0549914 -0.0025 0.5
0.0638504 0.0549914 0.0025 0.5
0.084455 0.000555 -0.0025 0.5
0.084455 0.000555 0.0025 0.5
0.0638394 0.0555 0.0025 0.5
0.0638394 0.0555 -0.0025 0.5
0.0847328 0.0002775 0.0025 0.5
0.0847328 0.0002775 -0.0025 0.5
0.0637468 0.0559051 -0.0025 0.5
0.0637468 0.0559051 0.0025 0.5
0.0637383 0.0560608 1.94326e-18 0.5
0.0850106 0.0002775 0 0.5
0.0637294 0.0562223 0.0025 0.5
0.0637294 0.0562223 -0.0025 0.5
0.0637683 0.05661 0.0025 0.5
0.0637683 0.05661 -0.0025 0.5
0.0852884 0.0002775 0.0025 0.5
0.0852884 0.0002775 -0.0025 0.5
0.0636547 0.0569231 0.0025 0.5
0.0636547 0.0569231 -0.0025 0.5
0.0636421 0.0571736 2.9165e-19 0.5
0.0855663 0.000555 -0.0025 0.5
0.0855663 0.000555 0.0025 0.5
0.063629 0.0574326 0.0025 0.5
0.063629 0.0574326 -0.0025 0.5
0.0858441 0.0002775 0.0025 0.5
0.0858441 0.0002775 -0.0025 0.5
0.0636955 0.05772 0.0025 0.5
0.0636955 0.05772 -0.0025 0.5
0.0635785 0.0579569 -0.00143269 0.5
0.0635785 0.0579569 0.00143269 0.5
0.0635785 0.0579569 0.0025 0.5
0.0635785 0.0579569 -0.0025 0.5
0.0861219 0.0002775 0 0.5
0.0635638 0.058275 1.40123e-18 0.5
0.0863997 0.0002775 0.0025 0.5
0.0863997 0.0002775 -0.0025 0.5
0.0635486 0.0586229 -0.00156711 0.5
0.0635486 0.0586229 0.00156711 0.5
0.0635486 0.0586229 0.0025 0.5
0.0635486 0.0586229 -0.0025 0.5
0.0636243 0.05883 0.0025 0.5
0.0636243 0.05883 -0.0025 0.5
0.0635165 0.059005 0.0017116 0.5
0.0635165 0.059005 -0.0017116 0.5
0.0866775 0.000555 -0.0025 0.5
0.0866775 0.000555 0.0025 0.5
0.0635165 0.059005 0.0025 0.5
0.0635165 0.059005 -0.0025 0.5
0.0635011 0.059385 -3.05681e-18 0.5
0.0869553 0.0002775 0.0025 0.5
0.0869553 0.0002775 -0.0025 0.5
0.0634863 0.0597951 -0.00184729 0.5
0.0634863 0.0597951 0.00184729 0.5
0.0872331 0.0002775 0 0.5
0.0634863 0.0597951 0.0025 0.5
0.0634863 0.0597951 -0.0025 0.5
0.0635584 0.05994 0.0025 0.5
0.0635584 0.05994 -0.0025 0.5
0.0634674 0.060066 0.00193239 0.5
0.0634674 0.060066 -0.00193239 0.5
0.0634674 0.060066 0.0025 0.5
0.0634674 0.060066 -0.0025 0.5
0.0875109 0.0002775 0.0025 0.5
0.0875109 0.0002775 -0.0025 0.5
0.0634529 0.060495 8.38022e-19 0.5
0.0877888 0.000555 -0.0025 0.5
0.0877888 0.000555 0.0025 0.5
0.0634396 0.0609518 -0.00205763 0.5
0.0634396 0.0609518 0.00205763 0.5
0.0634396 0.0609518 0.0025 0.5
0.0634396 0.0609518 -0.0025 0.5
0.0880666 0.0002775 -0.00125 0.5
0.0880666 0.0002775 0.00125 0.5
0.0880666 0.0002775 0.0025 0.5
0.0880666 0.0002775 -0.0025 0.5
0.063429 0.0611376 0.00210518 0.5
0.063429 0.0611376 -0.00210518 0.5
0.0635002 0.06105 0.0025 0.5
0.0635002 0.06105 -0.0025 0.5
0.063429 0.0611376 0.0025 0.5
0.063429 0.0611376 -0.0025 0.5
0.0883444 0.0002775 0 0.5
0.0883444 0.00111 0.0025 0.5
0.0883444 0.00111 -0.0025 0.5
0.0883444 0.00222 0.0025 0.5
0.0883444 0.00222 -0.0025 0.5
0.0634161 0.061605 5.26722e-19 0.5
0.0883444 0.00333 0.0025 0.5
0.0883444 0.00333 -0.0025 0.5
0.0883444 0.00444 0.0025 0.5
0.0883444 0.00444 -0.0025 0.5
0.0883444 0.00555 0.0025 0.5
0.0883444 0.00555 -0.0025 0.5
0.0886222 0.000555 0 0.5
0.0883444 0.00666 0.0025 0.5
0.0883444 0.00666 -0.0025 0.5
0.0886222 0.0002775 -0.00125 0.5
0.0886222 0.0002775 0.00125 0.5
0.0886222 0.0008325 0.00125 0.5
0.0886222 0.0008325 -0.00125 0.5
0.0886222 0.001665 0 0.5
0.0886222 0.0002775 0.0025 0.5
0.0886222 0.0002775 -0.0025 0.5
0.0886222 0.0008325 0.0025 0.5
0.0886222 0.0008325 -0.0025 0.5
0.0886222 0.002775 0 0.5
0.0886222 0.0013875 0.0025 0.5
0.0886222 0.0013875 -0.0025 0.5
0.0886222 0.0019425 0.0025 0.5
0.0886222 0.0019425 -0.0025 0.5
0.0886222 0.0024975 0.0025 0.5
0.0886222 0.0024975 -0.0025 0.5
0.0886222 0.003885 0 0.5
0.0886222 0.0030525 0.0025 0.5
0.0886222 0.0030525 -0.0025 0.5
0.0883444 0.00777 0.0025 0.5
0.0883444 0.00777 -0.0025 0.5
0.0886222 0.0036075 0.0025 0.5
0.0886222 0.0036075 -0.0025 0.5
0.0886222 0.0041625 0.0025 0.5
0.0886222 0.0041625 -0.0025 0.5
0.0886222 0.004995 -1.81603e-19 0.5
0.0634049 0.0620965 0.00221382 0.5
0.0634049 0.0620965 -0.00221382 0.5
0.0634049 0.0620965 0.0025 0.5
0.0634049 0.0620965 -0.0025 0.5
0.0886222 0.0047175 0.0025 0.5
0.0886222 0.0047175 -0.0025 0.5
0.0886222 0.0052725 0.0025 0.5
0.0886222 0.0052725 -0.0025 0.5
0.0883444 0.00888 0.0025 0.5
0.0883444 0.00888 -0.0025 0.5
0.0886222 0.006105 -4.31797e-21 0.5
0.0886222 0.0058275 0.0025 0.5
0.0886222 0.0058275 -0.0025 0.5
0.0633994 0.0622181 -0.00223827 0.5
0.0633994 0.0622181 0.00223827 0.5
0.0634508 0.06216 0.0025 0.5
0.0634508 0.06216 -0.0025 0.5
0.0633994 0.0622181 0.0025 0.5
0.0633994 0.0622181 -0.0025 0.5
0.0886222 0.0063825 0.0025 0.5
0.0886222 0.0063825 -0.0025 0.5
0.0886222 0.007215 3.76366e-21 0.5
0.0886222 0.0069375 -0.0025 0.5
0.0886222 0.0069375 0.0025 0.5
0.0883444 0.00999 0.0025 0.5
0.0883444 0.00999 -0.0025 0.5
0.0886222 0.0074925 -0.0025 0.5
0.0886222 0.0074925 0.0025 0.5
0.0886222 0.008325 1.10296e-21 0.5
0.0886222 0.0080475 -0.0025 0.5
0.0886222 0.0080475 0.0025 0.5
0.0886222 0.0086025 -0.0025 0.5
0.0886222 0.0086025 0.0025 0.5
0.0883444 0.0111 0.0025 0.5
0.0883444 0.0111 -0.0025 0.5
0.0886222 0.009435 1.92878e-21 0.5
0.0886222 0.0091575 0.0025 0.5
0.0886222 0.0091575 -0.0025 0.5
0.0633886 0.062715 2.27258e-20 0.5
0.0886222 0.0097125 0.0025 0.5
0.0886222 0.0097125 -0.0025 0.5
0.0883444 0.01221 0.0025 0.5
0.0883444 0.01221 -0.0025 0.5
0.0886222 0.010545 3.88923e-21 0.5
0.0886222 0.0102675 0.0025 0.5
0.0886222 0.0102675 -0.0025 0.5
0.0886222 0.0108225 0.0025 0.5
0.0886222 0.0108225 -0.0025 0.5
0.0883444 0.01332 0.0025 0.5
0.0883444 0.01332 -0.0025 0.5
0.0886222 0.0113775 0.0025 0.5
0.0886222 0.0113775 -0.0025 0.5
0.0886222 0.011655 2.78619e-21 0.5
0.0886222 0.0119325 0.0025 0.5
0.0886222 0.0119325 -0.0025 0.5
0.0886222 0.0124875 -0.0025 0.5
0.0886222 0.0124875 0.0025 0.5
0.0886222 0.012765 1.81655e-19 0.5
0.0883444 0.01443 0.0025 0.5
0.0883444 0.01443 -0.0025 0.5
0.0633795 0.0632318 -0.00232778 0.5
0.0633795 0.0632318 0.00232778 0.5
0.0633795 0.0632318 0.0025 0.5
0.0633795 0.0632318 -0.0025 0.5
0.063377 0.0633057 -0.00233922 0.5
0.063377 0.0633057 0.00233922 0.5
0.0634106 0.06327 0.0025 0.5
0.0634106 0.06327 -0.0025 0.5
0.0886222 0.0130425 -0.0025 0.5
0.0886222 0.0130425 0.0025 0.5
0.063377 0.0633057 0.0025 0.5
0.063377 0.0633057 -0.0025 0.5
0.0886222 0.0135975 0.0025 0.5
0.0886222 0.0135975 -0.0025 0.5
0.0886222 0.013875 0 0.5
0.0883444 0.01554 0.0025 0.5
0.0883444 0.01554 -0.0025 0.5
0.0886222 0.0141525 0.0025 0.5
0.0886222 0.0141525 -0.0025 0.5
0.0886222 0.0147075 -0.0025 0.5
0.0886222 0.0147075 0.0025 0.5
0.0886222 0.014985 7.52748e-21 0.5
0.0883444 0.01665 0.0025 0.5
0.0883444 0.01665 -0.0025 0.5
0.0633682 0.063825 -2.3636e-20 0.5
0.0886222 0.0152625 -0.0025 0.5
0.0886222 0.0152625 0.0025 0.5
0.0886222 0.0158175 0.0025 0.5
0.0886222 0.0158175 -0.0025 0.5
0.0886222 0.016095 0 0.5
0.0883444 0.01776 0.0025 0.5
0.0883444 0.01776 -0.0025 0.5
0.0886222 0.0163725 0.0025 0.5
0.0886222 0.0163725 -0.0025 0.5
0.0886222 0.0169275 0.0025 0.5
0.0886222 0.0169275 -0.0025 0.5
0.0886222 0.017205 0 0.5
0.0633595 0.0643617 -0.00241766 0.5
0.0633595 0.0643617 0.00241766 0.5
0.0633595 0.0643617 0.0025 0.5
0.0633595 0.0643617 -0.0025 0.5
0.0886222 0.0174825 0.0025 0.5
0.0886222 0.0174825 -0.0025 0.5
0.0883444 0.01887 0.0025 0.5
0.0883444 0.01887 -0.0025 0.5
0.0633584 0.0643972 -0.00242272 0.5
0.0633584 0.0643972 0.00242272 0.5
0.0633756 0.06438 0.0025 0.5
0.0633756 0.06438 -0.0025 0.5
0.0633584 0.0643972 0.0025 0.5
0.0633584 0.0643972 -0.0025 0.5
0.0886222 0.0180375 0.0025 0.5
0.0886222 0.0180375 -0.0025 0.5
0.0886222 0.018315 -4.24739e-19 0.5
0.0886222 0.0185925 0.0025 0.5
0.0886222 0.0185925 -0.0025 0.5
0.0883444 0.01998 0.0025 0.5
0.0883444 0.01998 -0.0025 0.5
0.0886222 0.0191475 0.0025 0.5
0.0886222 0.0191475 -0.0025 0.5
0.06335 0.064935 -2.44491e-20 0.5
0.0886222 0.019425 2.54579e-19 0.5
0.0886222 0.0197025 0.0025 0.5
0.0886222 0.0197025 -0.0025 0.5
0.0883444 0.02109 0.0025 0.5
0.0883444 0.02109 -0.0025 0.5
0.0886222 0.0202575 0.0025 0.5
0.0886222 0.0202575 -0.0025 0.5
0.0886222 0.020535 -4.2863e-21 0.5
0.0886222 0.0208125 0.0025 0.5
0.0886222 0.0208125 -0.0025 0.5
0.0883444 0.0222 0.0025 0.5
0.0883444 0.0222 -0.0025 0.5
0.0633855 0.0654458 -0.00230105 0.5
0.0633855 0.0654458 0.00230105 0.5
0.0633855 0.0654458 0.0025 0.5
0.0633855 0.0654458 -0.0025 0.5
0.0886222 0.0213675 0.0025 0.5
0.0886222 0.0213675 -0.0025 0.5
0.0634343 0.06549 0.0025 0.5
0.0634343 0.06549 -0.0025 0.5
0.0634009 0.0655496 -0.00223141 0.5
0.0634009 0.0655496 0.00223141 0.5
0.0886222 0.021645 -2.44648e-21 0.5
0.0634009 0.0655496 0.0025 0.5
0.0634009 0.0655496 -0.0025 0.5
0.0886222 0.0219225 0.0025 0.5
0.0886222 0.0219225 -0.0025 0.5
0.0883444 0.02331 0.0025 0.5
0.0883444 0.02331 -0.0025 0.5
0.0886222 0.0224775 0.0025 0.5
0.0886222 0.0224775 -0.0025 0.5
0.0886222 0.022755 -2.49561e-19 0.5
0.0886222 0.0230325 0.0025 0.5
0.0886222 0.0230325 -0.0025 0.5
0.0883444 0.02442 0.0025 0.5
0.0883444 0.02442 -0.0025 0.5
0.0886222 0.0235875 0.0025 0.5
0.0886222 0.0235875 -0.0025 0.5
0.0886222 0.023865 4.33092e-19 0.5
0.0886222 0.0241425 0.0025 0.5
0.0886222 0.0241425 -0.0025 0.5
0.0636689 0.0662728 0.0025 0.5
0.0636689 0.0662728 -0.0025 0.5
0.0883444 0.02553 0.0025 0.5
0.0883444 0.02553 -0.0025 0.5
0.0638361 0.0662576 -1.35922e-21 0.5
0.0886222 0.0246975 -0.0025 0.5
0.0886222 0.0246975 0.0025 0.5
0.0886222 0.024975 1.19177e-21 0.5
0.0886222 0.0252525 0.0025 0.5
0.0886222 0.0252525 -0.0025 0.5
0.0641249 0.0662728 0.0025 0.5
0.0641249 0.0662728 -0.0025 0.5
0.0644525 0.0660207 -0.0025 0.5
0.0644525 0.0660207 0.0025 0.5
0.0883444 0.02664 0.0025 0.5
0.0883444 0.02664 -0.0025 0.5
0.0886222 0.0258075 0.0025 0.5
0.0886222 0.0258075 -0.0025 0.5
0.0886222 0.026085 9.22105e-21 0.5
0.0886222 0.0263625 0.0025 0.5
0.0886222 0.0263625 -0.0025 0.5
0.0883444 0.02775 0.0025 0.5
0.0883444 0.02775 -0.0025 0.5
0.0886222 0.0269175 0.0025 0.5
0.0886222 0.0269175 -0.0025 0.5
0.0886222 0.027195 1.2044e-20 0.5
0.0647303 0.0663225 0.0025 0.5
0.0647303 0.0663225 -0.0025 0.5
0.0886222 0.0274725 0.0025 0.5
0.0886222 0.0274725 -0.0025 0.5
0.0650081 0.0663225 0 0.5
0.0883444 0.02886 0.0025 0.5
0.0883444 0.02886 -0.0025 0.5
0.0886222 0.0280275 0.0025 0.5
0.0886222 0.0280275 -0.0025 0.5
0.0886222 0.028305 -8.22717e-21 0.5
0.0655638 0.066045 -0.0025 0.5
0.0655638 0.066045 0.0025 0.5
0.0652859 0.0663225 0.0025 0.5
0.0652859 0.0663225 -0.0025 0.5
0.0886222 0.0285825 0.0025 0.5
0.0886222 0.0285825 -0.0025 0.5
0.0886222 0.0291375 0.0025 0.5
0.0886222 0.0291375 -0.0025 0.5
0.0883444 0.02997 0.0025 0.5