0 	506.15 	-3.46349e-05
0.000446734 	506.12 	-3.49506e-05
0.000893467 	506.091 	-3.52711e-05
0.0013402 	506.061 	-3.59302e-05
0.00178693 	506.031 	-3.69157e-05
0.00223367 	506.002 	-3.79166e-05
0.0026804 	505.973 	-3.96196e-05
0.00312714 	505.944 	-4.13225e-05
0.00357387 	505.916 	-4.34243e-05
0.0040206 	505.889 	-4.58732e-05
0.00446734 	505.862 	-4.83559e-05
0.00491407 	505.836 	-5.14961e-05
0.0053608 	505.811 	-5.46362e-05
0.00580754 	505.787 	-5.80835e-05
0.00625427 	505.764 	-6.1769e-05
0.00670101 	505.741 	-6.54821e-05
0.00714774 	505.721 	-6.95208e-05
0.00759447 	505.701 	-7.35594e-05
0.00804121 	505.682 	-7.76948e-05
0.00848794 	505.665 	-8.18959e-05
0.00893467 	505.648 	-8.60985e-05
0.00938141 	505.633 	-9.03012e-05
0.00982814 	505.619 	-9.4504e-05
0.0102749 	505.606 	-9.86327e-05
0.0107216 	505.594 	-0.000102712
0.0111683 	505.582 	-0.000106766
0.0116151 	505.573 	-0.000110629
0.0120618 	505.563 	-0.000114491
0.0125085 	505.555 	-0.000118173
0.0129553 	505.548 	-0.00012175
0.013402 	505.541 	-0.000125278
0.0138487 	505.536 	-0.000128522
0.0142955 	505.53 	-0.000131767
0.0147422 	505.526 	-0.000134773
0.0151889 	505.522 	-0.000137657
0.0156357 	505.519 	-0.000140476
0.0160824 	505.517 	-0.000142986
0.0165291 	505.514 	-0.000145496
0.0169759 	505.513 	-0.000147747
0.0174226 	505.512 	-0.00014988
0.0178693 	505.511 	-0.00015194
0.0183161 	505.51 	-0.000153701
0.0187628 	505.51 	-0.000155461
0.0192095 	505.51 	-0.000156963
0.0196563 	505.511 	-0.00015836
0.020103 	505.511 	-0.000159677
0.0205497 	505.512 	-0.000160717
0.0209965 	505.513 	-0.000161757
0.0214432 	505.514 	-0.00016254
0.0218899 	505.515 	-0.000163231
0.0223367 	505.516 	-0.000163836
0.0227834 	505.517 	-0.000164183
0.0232302 	505.518 	-0.000164531
0.0236769 	505.519 	-0.000164619
0.0241236 	505.52 	-0.000164627
0.0245704 	505.522 	-0.000164541
0.0250171 	505.522 	-0.000164209
0.0254638 	505.523 	-0.000163876
0.0259106 	505.524 	-0.00016327
0.0263573 	505.525 	-0.000162592
0.026804 	505.525 	-0.000161808
0.0272508 	505.525 	-0.000160778
0.0276975 	505.525 	-0.000159748
0.0281442 	505.525 	-0.000158425
0.028591 	505.524 	-0.000157035
0.0290377 	505.523 	-0.000155526
0.0294844 	505.522 	-0.000153769
0.0299312 	505.52 	-0.000152013
0.0303779 	505.518 	-0.000149944
0.0308246 	505.515 	-0.000147815
0.0312714 	505.513 	-0.000145556
0.0317181 	505.509 	-0.000143056
0.0321648 	505.505 	-0.000140556
0.0326116 	505.501 	-0.000137743
0.0330583 	505.496 	-0.00013488
0.033505 	505.491 	-0.000131889
0.0339518 	505.484 	-0.000128686
0.0343985 	505.478 	-0.000125482
0.0348452 	505.47 	-0.00012201
0.035292 	505.462 	-0.000118504
0.0357387 	505.454 	-0.0001149
0.0361854 	505.444 	-0.000111151
0.0366322 	505.435 	-0.000107401
0.0370789 	505.424 	-0.000103508
0.0375256 	505.413 	-9.96004e-05
0.0379724 	505.401 	-9.5675e-05
0.0384191 	505.387 	-9.17218e-05
0.0388658 	505.374 	-8.77686e-05
0.0393126 	505.36 	-8.38979e-05
0.0397593 	505.345 	-8.00298e-05
0.040206 	505.33 	-7.62629e-05
0.0406528 	505.313 	-7.2611e-05
0.0410995 	505.297 	-6.89592e-05
0.0415462 	505.279 	-6.56661e-05
0.041993 	505.261 	-6.23831e-05
0.0424397 	505.243 	-5.93768e-05
0.0428864 	505.224 	-5.66626e-05
0.0433332 	505.205 	-5.39529e-05
0.0437799 	505.186 	-5.17665e-05
0.0442266 	505.166 	-4.95719e-05
0.0446734 	505.146 	-4.76249e-05
0.0451201 	505.126 	-4.59313e-05
0.0455668 	505.106 	-4.42386e-05
0.0460136 	505.084 	-4.55582e-05
0.0464603 	505.062 	-4.69102e-05
0.046907 	505.037 	-4.81186e-05
0.0473538 	505.009 	-4.86366e-05
0.0478005 	504.981 	-4.88366e-05
0.0482472 	504.95 	-4.61617e-05
0.048694 	504.918 	-4.34868e-05
0.0491407 	504.887 	-4.11384e-05
0.0495874 	504.856 	-3.909e-05
0.0500342 	504.824 	-3.70625e-05
0.0504809 	504.794 	-3.54038e-05
0.0509276 	504.763 	-3.37452e-05
0.0513744 	504.732 	-3.2215e-05
0.0518211 	504.701 	-3.07829e-05
0.0522678 	504.67 	-2.93654e-05
0.0527146 	504.639 	-2.81139e-05
0.0531613 	504.609 	-2.68624e-05
0.053608 	504.578 	-2.57018e-05
0.0540548 	504.547 	-2.4604e-05
0.0545015 	504.516 	-2.35196e-05
0.0549482 	504.485 	-2.25535e-05
0.055395 	504.455 	-2.15874e-05
0.0558417 	504.424 	-2.06905e-05
0.0562884 	504.393 	-1.98376e-05
0.0567352 	504.362 	-1.89965e-05
0.0571819 	504.331 	-1.82412e-05
0.0576286 	504.301 	-1.74858e-05
0.0580754 	504.27 	-1.67836e-05
0.0585221 	504.239 	-1.61127e-05
0.0589688 	504.208 	-1.54519e-05
0.0594156 	504.178 	-1.48542e-05
0.0598623 	504.147 	-1.42565e-05
0.060309 	504.116 	-1.37002e-05
0.0607558 	504.085 	-1.31663e-05
0.0612025 	504.054 	-1.26413e-05
0.0616492 	504.024 	-1.21633e-05
0.062096 	503.993 	-1.16853e-05
0.0625427 	503.962 	-1.12399e-05
0.0629894 	503.931 	-1.08109e-05
0.0634362 	503.901 	-1.03895e-05
0.0638829 	503.87 	-1.00037e-05
0.0643296 	503.839 	-9.61787e-06
0.0647764 	503.808 	-9.25819e-06
0.0652231 	503.778 	-8.91053e-06
0.0656698 	503.747 	-8.56945e-06
0.0661166 	503.716 	-8.25567e-06
0.0665633 	503.685 	-7.9419e-06
0.0670101 	503.655 	-7.64934e-06
0.0674568 	503.624 	-7.36574e-06
0.0679035 	503.593 	-7.08787e-06
0.0683503 	503.562 	-6.83127e-06
0.068797 	503.532 	-6.57467e-06
0.0692437 	503.501 	-6.33555e-06
0.0696905 	503.47 	-6.1032e-06
0.0701372 	503.439 	-5.87588e-06
0.0705839 	503.409 	-5.6654e-06
0.0710307 	503.378 	-5.45491e-06
0.0714774 	503.347 	-5.25909e-06
0.0719241 	503.317 	-5.06842e-06
0.0723709 	503.286 	-4.88227e-06
0.0728176 	503.255 	-4.70965e-06
0.0732643 	503.224 	-4.53702e-06
0.0737111 	503.194 	-4.37697e-06
0.0741578 	503.163 	-4.22086e-06
0.0746045 	503.132 	-4.0689e-06
0.0750513 	503.102 	-3.92801e-06
0.075498 	503.071 	-3.78711e-06
0.0759447 	503.04 	-3.65728e-06
0.0763915 	503.009 	-3.53047e-06
0.0768382 	502.979 	-3.40759e-06
0.0772849 	502.948 	-3.29393e-06
0.0777317 	502.917 	-3.18028e-06
0.0781784 	502.887 	-3.07666e-06
0.0786251 	502.856 	-2.97536e-06
0.0790719 	502.825 	-2.87789e-06
0.0795186 	502.795 	-2.78829e-06
0.0799653 	502.764 	-2.6987e-06
0.0804121 	502.733 	-2.61854e-06
0.0808588 	502.702 	-2.54012e-06
0.0813055 	502.672 	-2.46561e-06
0.0817523 	502.641 	-2.39797e-06
0.082199 	502.61 	-2.33034e-06
0.0826457 	502.58 	-2.27194e-06
0.0830925 	502.549 	-2.21481e-06
0.0835392 	502.518 	-2.16178e-06
0.0839859 	502.488 	-2.11495e-06
0.0844327 	502.457 	-2.06813e-06
0.0848794 	502.426 	-2.03071e-06
0.0853261 	502.396 	-1.99411e-06
0.0857729 	502.365 	-1.96202e-06
0.0862196 	502.334 	-1.93569e-06
0.0866663 	502.303 	-1.90935e-06
0.0871131 	502.273 	-1.89297e-06
0.0875598 	502.242 	-1.87701e-06
0.0880065 	502.211 	-1.86613e-06
0.0884533 	502.181 	-1.86077e-06
0.0889 	502.15 	-1.85538e-06
