# f_l  POINT_DATA 1236
#  x  y  z  f_l
0.0718067 0.00222 0.0025 0.5
0.0718067 0.00222 -0.0025 0.5
0.0718352 0.00111 0.0025 0.5
0.0718352 0.00111 -0.0025 0.5
0.0718182 0.00333 -0.0025 0.5
0.0718182 0.00333 0.0025 0.5
0.0719213 0.0016619 1.77267e-19 0.5
0.0719293 0.00277609 7.08683e-21 0.5
0.0719281 0.00141279 0.0025 0.5
0.0719281 0.00141279 -0.0025 0.5
0.0719188 0.00190792 0.0025 0.5
0.0719188 0.00190792 -0.0025 0.5
0.0719871 0.000555 1.57265e-19 0.5
0.0719751 0.000854089 -0.00134725 0.5
0.0719751 0.000854089 0.00134725 0.5
0.0718294 0.00444 0.0025 0.5
0.0718294 0.00444 -0.0025 0.5
0.0719277 0.00252326 0.0025 0.5
0.0719277 0.00252326 -0.0025 0.5
0.0719751 0.000854089 0.0025 0.5
0.0719751 0.000854089 -0.0025 0.5
0.0719309 0.00303001 0.0025 0.5
0.0719309 0.00303001 -0.0025 0.5
0.0719394 0.00388609 -1.04694e-19 0.5
0.0719378 0.00362316 -0.0025 0.5
0.0719378 0.00362316 0.0025 0.5
0.0718428 0.00555 0.0025 0.5
0.0718428 0.00555 -0.0025 0.5
0.071941 0.00415012 0.0025 0.5
0.071941 0.00415012 -0.0025 0.5
0.0719506 0.00499635 7.80785e-20 0.5
0.0719487 0.00472225 0.0025 0.5
0.0719487 0.00472225 -0.0025 0.5
0.0719527 0.0052718 0.0025 0.5
0.0719527 0.0052718 -0.0025 0.5
0.0719616 0.00581939 0.00128654 0.5
0.0719616 0.00581939 -0.00128654 0.5
0.0718588 0.00666 0.0025 0.5
0.0718588 0.00666 -0.0025 0.5
0.0719638 0.006105 3.06278e-19 0.5
0.0719616 0.00581939 0.0025 0.5
0.0719616 0.00581939 -0.0025 0.5
0.0719666 0.00639567 -0.00130931 0.5
0.0719666 0.00639567 0.00130931 0.5
0.0722313 0.000832558 -0.0025 0.5
0.0722313 0.000832558 0.0025 0.5
0.0719666 0.00639567 0.0025 0.5
0.0719666 0.00639567 -0.0025 0.5
0.0719764 0.00691452 0.00135351 0.5
0.0719764 0.00691452 -0.00135351 0.5
0.0718774 0.00777 -0.0025 0.5
0.0718774 0.00777 0.0025 0.5
0.0719793 0.007215 2.12015e-19 0.5
0.0719764 0.00691452 0.0025 0.5
0.0719764 0.00691452 -0.0025 0.5
0.0719826 0.00752163 -0.0013812 0.5
0.0719826 0.00752163 0.0013812 0.5
0.0719826 0.00752163 0.0025 0.5
0.0719826 0.00752163 -0.0025 0.5
0.0719931 0.00800792 0.0014283 0.5
0.0719931 0.00800792 -0.0014283 0.5
0.0719964 0.008325 1.43589e-19 0.5
0.0719931 0.00800792 0.0025 0.5
0.0719931 0.00800792 -0.0025 0.5
0.0718982 0.00888 -0.0025 0.5
0.0718982 0.00888 0.0025 0.5
0.0720003 0.00864932 -0.00146089 0.5
0.0720003 0.00864932 0.00146089 0.5
0.0725091 0.0002775 0.0025 0.5
0.0725091 0.0002775 -0.0025 0.5
0.0720003 0.00864932 0.0025 0.5
0.0720003 0.00864932 -0.0025 0.5
0.0720109 0.00910007 -0.00150868 0.5
0.0720109 0.00910007 0.00150868 0.5
0.0720109 0.00910007 -0.0025 0.5
0.0720109 0.00910007 0.0025 0.5
0.0720148 0.009435 -2.94518e-19 0.5
0.0719206 0.00999 0.0025 0.5
0.0719206 0.00999 -0.0025 0.5
0.0720191 0.00977806 -0.00154533 0.5
0.0720191 0.00977806 0.00154533 0.5
0.0720191 0.00977806 0.0025 0.5
0.0720191 0.00977806 -0.0025 0.5
0.0720292 0.0101918 -0.00159084 0.5
0.0720292 0.0101918 0.00159084 0.5
0.0727869 0.0002775 1.145e-19 0.5
0.0720292 0.0101918 -0.0025 0.5
0.0720292 0.0101918 0.0025 0.5
0.0720335 0.010545 3.41533e-19 0.5
0.0719455 0.0111 0.0025 0.5
0.0719455 0.0111 -0.0025 0.5
0.0720391 0.0109081 -0.00163551 0.5
0.0720391 0.0109081 0.00163551 0.5
0.0720391 0.0109081 0.0025 0.5
0.0720391 0.0109081 -0.0025 0.5
0.072048 0.011283 0.00167551 0.5
0.072048 0.011283 -0.00167551 0.5
0.072048 0.011283 0.0025 0.5
0.072048 0.011283 -0.0025 0.5
0.0720537 0.011655 3.12682e-19 0.5
0.0719833 0.01221 0.0025 0.5
0.0719833 0.01221 -0.0025 0.5
0.0720664 0.0120453 -0.00175812 0.5
0.0720664 0.0120453 0.00175812 0.5
0.0730647 0.0002775 0.0025 0.5
0.0730647 0.0002775 -0.0025 0.5
0.0720664 0.0120453 0.0025 0.5
0.0720664 0.0120453 -0.0025 0.5
0.0720734 0.0123676 0.00178995 0.5
0.0720734 0.0123676 -0.00178995 0.5
0.0720734 0.0123676 0.0025 0.5
0.0720734 0.0123676 -0.0025 0.5
0.0720866 0.012765 -8.01434e-20 0.5
0.0720343 0.01332 0.0025 0.5
0.0720343 0.01332 -0.0025 0.5
0.0721008 0.0131897 -0.00191309 0.5
0.0721008 0.0131897 0.00191309 0.5
0.0721008 0.0131897 0.0025 0.5
0.0721008 0.0131897 -0.0025 0.5
0.0721067 0.0134444 0.00193946 0.5
0.0721067 0.0134444 -0.00193946 0.5
0.0733425 0.000555 -0.0025 0.5
0.0733425 0.000555 0.0025 0.5
0.0721067 0.0134444 0.0025 0.5
0.0721067 0.0134444 -0.0025 0.5
0.0721214 0.013875 7.3952e-20 0.5
0.0720902 0.01443 -0.0025 0.5
0.0720902 0.01443 0.0025 0.5
0.0721384 0.0143373 -0.00208227 0.5
0.0721384 0.0143373 0.00208227 0.5
0.0721384 0.0143373 0.0025 0.5
0.0721384 0.0143373 -0.0025 0.5
0.072143 0.0145182 0.00210278 0.5
0.072143 0.0145182 -0.00210278 0.5
0.072143 0.0145182 0.0025 0.5
0.072143 0.0145182 -0.0025 0.5
0.0736203 0.0002775 0.0025 0.5
0.0736203 0.0002775 -0.0025 0.5
0.0721606 0.014985 2.94481e-19 0.5
0.0721539 0.01554 0.0025 0.5
0.0721539 0.01554 -0.0025 0.5
0.0721809 0.0154897 -0.00227342 0.5
0.0721809 0.0154897 0.00227342 0.5
0.0721809 0.0154897 0.0025 0.5
0.0721809 0.0154897 -0.0025 0.5
0.0721835 0.0155877 0.00228497 0.5
0.0721835 0.0155877 -0.00228497 0.5
0.0721835 0.0155877 0.0025 0.5
0.0721835 0.0155877 -0.0025 0.5
0.0738981 0.0002775 1.12679e-19 0.5
0.0722045 0.016095 2.07081e-19 0.5
0.0722259 0.01665 0.0025 0.5
0.0722259 0.01665 -0.0025 0.5
0.0722278 0.0166466 0.00248457 0.5
0.0722278 0.0166466 -0.00248457 0.5
0.0722278 0.0166466 0.0025 0.5
0.0722278 0.0166466 -0.0025 0.5
0.072228 0.0166533 0.0024853 0.5
0.072228 0.0166533 -0.0024853 0.5
0.072228 0.0166533 0.0025 0.5
0.072228 0.0166533 -0.0025 0.5
0.0722313 0.0167274 -0.0025 0.5
0.0722313 0.0167274 0.0025 0.5
0.0741759 0.0002775 0.0025 0.5
0.0741759 0.0002775 -0.0025 0.5
0.0722522 0.017205 1.61803e-20 0.5
0.0722748 0.0177164 -0.00230383 0.5
0.0722748 0.0177164 0.00230383 0.5
0.0722748 0.0177164 0.0025 0.5
0.0722748 0.0177164 -0.0025 0.5
0.0722809 0.0178096 -0.00227677 0.5
0.0722809 0.0178096 0.00227677 0.5
0.0722809 0.0178096 0.0025 0.5
0.0722809 0.0178096 -0.0025 0.5
0.0723016 0.01776 0.0025 0.5
0.0723016 0.01776 -0.0025 0.5
0.0744538 0.000555 -0.0025 0.5
0.0744538 0.000555 0.0025 0.5
0.0723041 0.018315 6.85565e-19 0.5
0.0723257 0.0187757 -0.0020752 0.5
0.0723257 0.0187757 0.0020752 0.5
0.0723257 0.0187757 0.0025 0.5
0.0723257 0.0187757 -0.0025 0.5
0.0747316 0.0002775 0.0025 0.5
0.0747316 0.0002775 -0.0025 0.5
0.0723396 0.0189782 -0.00201244 0.5
0.0723396 0.0189782 0.00201244 0.5
0.0723396 0.0189782 0.0025 0.5
0.0723396 0.0189782 -0.0025 0.5
0.0723753 0.01887 0.0025 0.5
0.0723753 0.01887 -0.0025 0.5
0.0723614 0.019425 -4.75275e-19 0.5
0.0750094 0.0002775 1.14375e-19 0.5
0.0723816 0.0198298 -0.00182349 0.5
0.0723816 0.0198298 0.00182349 0.5
0.0723816 0.0198298 0.0025 0.5
0.0723816 0.0198298 -0.0025 0.5
0.0724058 0.0201544 -0.00171446 0.5
0.0724058 0.0201544 0.00171446 0.5
0.0724478 0.01998 0.0025 0.5
0.0724478 0.01998 -0.0025 0.5
0.0724058 0.0201544 -0.0025 0.5
0.0724058 0.0201544 0.0025 0.5
0.0724257 0.020535 -6.71011e-19 0.5
0.0752872 0.0002775 0.0025 0.5
0.0752872 0.0002775 -0.0025 0.5
0.0724439 0.0208776 -0.00154317 0.5
0.0724439 0.0208776 0.00154317 0.5
0.0724439 0.0208776 -0.0025 0.5
0.0724439 0.0208776 0.0025 0.5
0.0725191 0.02109 -0.0025 0.5
0.0725191 0.02109 0.0025 0.5
0.0724813 0.0213398 -0.00137479 0.5
0.0724813 0.0213398 0.00137479 0.5
0.0724813 0.0213398 0.0025 0.5
0.0724813 0.0213398 -0.0025 0.5
0.075565 0.000555 -0.0025 0.5
0.075565 0.000555 0.0025 0.5
0.0725086 0.0218269 2.58649e-19 0.5
0.0725137 0.0219178 0.0025 0.5
0.0725137 0.0219178 -0.0025 0.5
0.0758428 0.0002775 0.0025 0.5
0.0758428 0.0002775 -0.0025 0.5
0.0725888 0.0222 0.0025 0.5
0.0725888 0.0222 -0.0025 0.5
0.0725674 0.0225358 0.0025 0.5
0.0725674 0.0225358 -0.0025 0.5
0.07258 0.0227468 -5.28946e-19 0.5
0.0761206 0.0002775 1.14623e-19 0.5
0.072592 0.0229496 0.0025 0.5
0.072592 0.0229496 -0.0025 0.5
0.0726565 0.02331 0.0025 0.5
0.0726565 0.02331 -0.0025 0.5
0.0763984 0.0002775 0.0025 0.5
0.0763984 0.0002775 -0.0025 0.5
0.0726669 0.0237452 0.0025 0.5
0.0726669 0.0237452 -0.0025 0.5
0.0726742 0.0238603 1.19226e-18 0.5
0.0726811 0.0239706 0.0025 0.5
0.0726811 0.0239706 -0.0025 0.5
0.0766763 0.000555 -0.0025 0.5
0.0766763 0.000555 0.0025 0.5
0.0727221 0.02442 0.0025 0.5
0.0727221 0.02442 -0.0025 0.5
0.0727834 0.0249777 1.30085e-18 0.5
0.0727829 0.024971 0.0025 0.5
0.0727829 0.024971 -0.0025 0.5
0.0727834 0.0249785 0.0025 0.5
0.0727834 0.0249785 -0.0025 0.5
0.0769541 0.0002775 0.0025 0.5
0.0769541 0.0002775 -0.0025 0.5
0.0727853 0.02553 -0.0025 0.5
0.0727853 0.02553 0.0025 0.5
0.0772319 0.0002775 1.08196e-19 0.5
0.0728798 0.0260877 -9.70124e-19 0.5
0.0728758 0.0259962 0.0025 0.5
0.0728758 0.0259962 -0.0025 0.5
0.0728838 0.0261818 0.0025 0.5
0.0728838 0.0261818 -0.0025 0.5
0.0775097 0.0002775 0.0025 0.5
0.0775097 0.0002775 -0.0025 0.5
0.072846 0.02664 0.0025 0.5
0.072846 0.02664 -0.0025 0.5
0.0777875 0.000555 -0.0025 0.5
0.0777875 0.000555 0.0025 0.5
0.0729534 0.0270286 0.0025 0.5
0.0729534 0.0270286 -0.0025 0.5
0.0729601 0.0271995 -7.78888e-19 0.5
0.072967 0.0273749 0.0025 0.5
0.072967 0.0273749 -0.0025 0.5
0.072904 0.02775 0.0025 0.5
0.072904 0.02775 -0.0025 0.5
0.0780653 0.0002775 0.0025 0.5
0.0780653 0.0002775 -0.0025 0.5
0.0730193 0.0280728 -0.0025 0.5
0.0730193 0.0280728 0.0025 0.5
0.0730278 0.0283107 1.08092e-18 0.5
0.0783431 0.0002775 8.26565e-20 0.5
0.0730365 0.0285544 -0.0025 0.5
0.0730365 0.0285544 0.0025 0.5
0.0729594 0.02886 0.0025 0.5
0.0729594 0.02886 -0.0025 0.5
0.0786209 0.0002775 0.0025 0.5
0.0786209 0.0002775 -0.0025 0.5
0.0730756 0.0291266 -0.00129898 0.5
0.0730756 0.0291266 0.00129898 0.5
0.0730756 0.0291266 0.0025 0.5
0.0730756 0.0291266 -0.0025 0.5
0.0730851 0.029415 -1.18779e-18 0.5
0.0730949 0.0297227 0.00138593 0.5
0.0730949 0.0297227 -0.00138593 0.5
0.0788988 0.000555 -0.0025 0.5
0.0788988 0.000555 0.0025 0.5
0.0730949 0.0297227 -0.0025 0.5
0.0730949 0.0297227 0.0025 0.5
0.073012 0.02997 0.0025 0.5
0.073012 0.02997 -0.0025 0.5
0.0731237 0.0301886 0.00151545 0.5
0.0731237 0.0301886 -0.00151545 0.5
0.0731237 0.0301886 0.0025 0.5
0.0731237 0.0301886 -0.0025 0.5
0.0791766 0.0002775 0.0025 0.5
0.0791766 0.0002775 -0.0025 0.5
0.0731338 0.030525 1.36703e-18 0.5
0.073144 0.0308818 -0.00160701 0.5
0.073144 0.0308818 0.00160701 0.5
0.073144 0.0308818 0.0025 0.5
0.073144 0.0308818 -0.0025 0.5
0.0730616 0.03108 0.0025 0.5
0.0730616 0.03108 -0.0025 0.5
0.0794544 0.0002775 9.54222e-20 0.5
0.073165 0.0312573 0.00170152 0.5
0.073165 0.0312573 -0.00170152 0.5
0.073165 0.0312573 0.0025 0.5
0.073165 0.0312573 -0.0025 0.5
0.0731753 0.031635 2.91127e-19 0.5
0.0797322 0.0002775 0.0025 0.5
0.0797322 0.0002775 -0.0025 0.5
0.0731991 0.0320468 -0.00185478 0.5
0.0731991 0.0320468 0.00185478 0.5
0.0731325 0.03219 0.0025 0.5
0.0731325 0.03219 -0.0025 0.5
0.0731991 0.0320468 0.0025 0.5
0.0731991 0.0320468 -0.0025 0.5
0.08001 0.000555 -0.0025 0.5
0.08001 0.000555 0.0025 0.5
0.0732214 0.0323109 0.00195534 0.5
0.0732214 0.0323109 -0.00195534 0.5
0.0732214 0.0323109 0.0025 0.5
0.0732214 0.0323109 -0.0025 0.5
0.0732451 0.032745 2.85697e-19 0.5
0.0802878 0.0002775 0.0025 0.5
0.0802878 0.0002775 -0.0025 0.5
0.0732245 0.0333 0.0025 0.5
0.0732245 0.0333 -0.0025 0.5
0.07327 0.0332276 -0.00217384 0.5
0.07327 0.0332276 0.00217384 0.5
0.07327 0.0332276 0.0025 0.5
0.07327 0.0332276 -0.0025 0.5
0.0732743 0.0333681 0.00219313 0.5
0.0732743 0.0333681 -0.00219313 0.5
0.0732743 0.0333681 -0.0025 0.5
0.0732743 0.0333681 0.0025 0.5
0.0805656 0.0002775 1.15842e-19 0.5
0.0733005 0.033855 2.62655e-19 0.5
0.0808434 0.0002775 0.0025 0.5
0.0808434 0.0002775 -0.0025 0.5
0.0732297 0.03441 0.0025 0.5
0.0732297 0.03441 -0.0025 0.5
0.0732763 0.0343438 -0.00220193 0.5
0.0732763 0.0343438 0.00220193 0.5
0.0732763 0.0343438 0.0025 0.5
0.0732763 0.0343438 -0.0025 0.5
0.0732769 0.0344755 0.00220492 0.5
0.0732769 0.0344755 -0.00220492 0.5
0.0732769 0.0344755 -0.0025 0.5
0.0732769 0.0344755 0.0025 0.5
0.0811213 0.000555 -0.0025 0.5
0.0811213 0.000555 0.0025 0.5
0.073255 0.034965 3.18493e-19 0.5
0.0732123 0.03552 0.0025 0.5
0.0732123 0.03552 -0.0025 0.5
0.0732659 0.0354435 -0.00215555 0.5
0.0732659 0.0354435 0.00215555 0.5
0.0732659 0.0354435 0.0025 0.5
0.0732659 0.0354435 -0.0025 0.5
0.0813991 0.0002775 0.0025 0.5
0.0813991 0.0002775 -0.0025 0.5
0.0732703 0.0355921 -0.002175 0.5
0.0732703 0.0355921 0.002175 0.5
0.0732703 0.0355921 -0.0025 0.5
0.0732703 0.0355921 0.0025 0.5
0.0816769 0.0002775 9.5745e-20 0.5
0.0732812 0.036075 1.85955e-19 0.5
0.0732631 0.03663 0.0025 0.5
0.0732631 0.03663 -0.0025 0.5
0.0732973 0.0365848 0.00229644 0.5
0.0732973 0.0365848 -0.00229644 0.5
0.0732973 0.0365848 0.0025 0.5
0.0732973 0.0365848 -0.0025 0.5
0.0819547 0.0002775 0.0025 0.5
0.0819547 0.0002775 -0.0025 0.5
0.0732989 0.0366736 0.00230362 0.5
0.0732989 0.0366736 -0.00230362 0.5
0.0732989 0.0366736 0.0025 0.5
0.0732989 0.0366736 -0.0025 0.5
0.0733155 0.037185 8.5603e-19 0.5
0.0822325 0.000555 -0.0025 0.5
0.0822325 0.000555 0.0025 0.5
0.0733165 0.03774 0.0025 0.5
0.0733165 0.03774 -0.0025 0.5
0.0733279 0.0377254 0.00243432 0.5
0.0733279 0.0377254 -0.00243432 0.5
0.0733279 0.0377254 0.0025 0.5
0.0733279 0.0377254 -0.0025 0.5
0.0733283 0.0377542 -0.00243593 0.5
0.0733283 0.0377542 0.00243593 0.5
0.0733283 0.0377542 -0.0025 0.5
0.0733283 0.0377542 0.0025 0.5
0.0825103 0.0002775 0.0025 0.5
0.0825103 0.0002775 -0.0025 0.5
0.073341 0.038295 -1.09828e-18 0.5
0.0827881 0.0002775 8.32524e-20 0.5
0.0733425 0.0384447 -0.0025 0.5
0.0733425 0.0384447 0.0025 0.5
0.0733507 0.0388418 -0.00246295 0.5
0.0733507 0.0388418 0.00246295 0.5
0.0733507 0.0388418 -0.0025 0.5
0.0733507 0.0388418 0.0025 0.5
0.0733512 0.0388587 0.0024609 0.5
0.0733512 0.0388587 -0.0024609 0.5
0.0733512 0.0388587 0.0025 0.5
0.0733512 0.0388587 -0.0025 0.5
0.0733577 0.03885 0.0025 0.5
0.0733577 0.03885 -0.0025 0.5
0.0830659 0.0002775 0.0025 0.5
0.0830659 0.0002775 -0.0025 0.5
0.0733611 0.039405 8.95356e-19 0.5
0.0833437 0.000555 -0.0025 0.5
0.0833437 0.000555 0.0025 0.5
0.0733683 0.0399342 -0.00238373 0.5
0.0733683 0.0399342 0.00238373 0.5
0.0733683 0.0399342 0.0025 0.5
0.0733683 0.0399342 -0.0025 0.5
0.0733694 0.0399869 -0.00237877 0.5
0.0733694 0.0399869 0.00237877 0.5
0.0733694 0.0399869 0.0025 0.5
0.0733694 0.0399869 -0.0025 0.5
0.0733888 0.03996 0.0025 0.5
0.0733888 0.03996 -0.0025 0.5
0.0836216 0.0002775 0.0025 0.5
0.0836216 0.0002775 -0.0025 0.5
0.0733768 0.040515 4.34248e-20 0.5
0.0838994 0.0002775 3.228e-22 0.5
0.0733818 0.0410307 -0.00232298 0.5
0.0733818 0.0410307 0.00232298 0.5
0.0733818 0.0410307 0.0025 0.5
0.0733818 0.0410307 -0.0025 0.5
0.073383 0.0411105 -0.00231757 0.5
0.073383 0.0411105 0.00231757 0.5
0.073383 0.0411105 0.0025 0.5
0.073383 0.0411105 -0.0025 0.5
0.0734114 0.04107 0.0025 0.5
0.0734114 0.04107 -0.0025 0.5
0.0841772 0.0002775 0.0025 0.5
0.0841772 0.0002775 -0.0025 0.5
0.0733882 0.041625 -2.36258e-18 0.5
0.084455 0.000555 -0.0025 0.5
0.084455 0.000555 0.0025 0.5
0.0733913 0.0421313 0.00228058 0.5
0.0733913 0.0421313 -0.00228058 0.5
0.0733913 0.0421313 0.0025 0.5
0.0733913 0.0421313 -0.0025 0.5
0.0733922 0.0422296 0.00227648 0.5
0.0733922 0.0422296 -0.00227648 0.5
0.0733922 0.0422296 0.0025 0.5
0.0733922 0.0422296 -0.0025 0.5
0.0734264 0.04218 0.0025 0.5
0.0734264 0.04218 -0.0025 0.5
0.0847328 0.0002775 0.0025 0.5
0.0847328 0.0002775 -0.0025 0.5
0.0733953 0.042735 2.759e-18 0.5
0.0850106 0.0002775 0 0.5
0.0733965 0.043236 -0.00225691 0.5
0.0733965 0.043236 0.00225691 0.5
0.0733965 0.043236 0.0025 0.5
0.0733965 0.043236 -0.0025 0.5
0.0733969 0.0433444 -0.00225517 0.5
0.0733969 0.0433444 0.00225517 0.5
0.0733969 0.0433444 0.0025 0.5
0.0733969 0.0433444 -0.0025 0.5
0.0734344 0.04329 0.0025 0.5
0.0734344 0.04329 -0.0025 0.5
0.0852884 0.0002775 0.0025 0.5
0.0852884 0.0002775 -0.0025 0.5
0.0733981 0.043845 -1.11895e-18 0.5
0.0855663 0.000555 -0.0025 0.5
0.0855663 0.000555 0.0025 0.5
0.0733976 0.044345 0.00225228 0.5
0.0733976 0.044345 -0.00225228 0.5
0.0733976 0.044345 0.0025 0.5
0.0733976 0.044345 -0.0025 0.5
0.0733973 0.0444548 0.0022533 0.5
0.0733973 0.0444548 -0.0022533 0.5
0.0733973 0.0444548 0.0025 0.5
0.0733973 0.0444548 -0.0025 0.5
0.0734356 0.0444 0.0025 0.5
0.0734356 0.0444 -0.0025 0.5
0.0858441 0.0002775 0.0025 0.5
0.0858441 0.0002775 -0.0025 0.5
0.0733967 0.044955 1.44644e-18 0.5
0.0861219 0.0002775 0 0.5
0.0733943 0.0454582 -0.00226672 0.5
0.0733943 0.0454582 0.00226672 0.5
0.0733943 0.0454582 0.0025 0.5
0.0733943 0.0454582 -0.0025 0.5
0.0733936 0.045561 -0.00227021 0.5
0.0733936 0.045561 0.00227021 0.5
0.0733936 0.045561 -0.0025 0.5
0.0733936 0.045561 0.0025 0.5
0.0734301 0.04551 0.0025 0.5
0.0734301 0.04551 -0.0025 0.5
0.0863997 0.0002775 0.0025 0.5
0.0863997 0.0002775 -0.0025 0.5
0.0733912 0.046065 -2.40958e-18 0.5
0.0866775 0.000555 -0.0025 0.5
0.0866775 0.000555 0.0025 0.5
0.073387 0.0465755 -0.00229967 0.5
0.073387 0.0465755 0.00229967 0.5
0.073387 0.0465755 -0.0025 0.5
0.073387 0.0465755 0.0025 0.5
0.0869553 0.0002775 0.0025 0.5
0.0869553 0.0002775 -0.0025 0.5
0.0733859 0.0466634 -0.00230468 0.5
0.0733859 0.0466634 0.00230468 0.5
0.0733859 0.0466634 -0.0025 0.5
0.0733859 0.0466634 0.0025 0.5
0.073418 0.04662 0.0025 0.5
0.073418 0.04662 -0.0025 0.5
0.0872331 0.0002775 0 0.5
0.0733818 0.047175 2.79839e-18 0.5
0.0875109 0.0002775 0.0025 0.5
0.0875109 0.0002775 -0.0025 0.5
0.0733759 0.0476967 -0.00234993 0.5
0.0733759 0.0476967 0.00234993 0.5
0.0733759 0.0476967 0.0025 0.5
0.0733759 0.0476967 -0.0025 0.5
0.0733747 0.0477622 -0.00235508 0.5
0.0733747 0.0477622 0.00235508 0.5
0.0733747 0.0477622 0.0025 0.5
0.0733747 0.0477622 -0.0025 0.5
0.0733996 0.04773 0.0025 0.5
0.0733996 0.04773 -0.0025 0.5
0.0877888 0.000555 -0.0025 0.5
0.0877888 0.000555 0.0025 0.5
0.0733688 0.048285 1.48872e-19 0.5
0.0880666 0.0002775 -0.00125 0.5
0.0880666 0.0002775 0.00125 0.5
0.0880666 0.0002775 0.0025 0.5
0.0880666 0.0002775 -0.0025 0.5
0.0733612 0.0488214 -0.00241603 0.5
0.0733612 0.0488214 0.00241603 0.5
0.0733612 0.0488214 0.0025 0.5
0.0733612 0.0488214 -0.0025 0.5
0.0733604 0.0488578 -0.0024196 0.5
0.0733604 0.0488578 0.0024196 0.5
0.0733604 0.0488578 0.0025 0.5
0.0733604 0.0488578 -0.0025 0.5
0.0733749 0.04884 0.0025 0.5
0.0733749 0.04884 -0.0025 0.5
0.0883444 0.0002775 0 0.5
0.0883444 0.00111 0.0025 0.5
0.0883444 0.00111 -0.0025 0.5
0.0883444 0.00222 0.0025 0.5
0.0883444 0.00222 -0.0025 0.5
0.0733528 0.049395 3.05329e-20 0.5
0.0883444 0.00333 0.0025 0.5
0.0883444 0.00333 -0.0025 0.5
0.0883444 0.00444 0.0025 0.5
0.0883444 0.00444 -0.0025 0.5
0.0883444 0.00555 0.0025 0.5
0.0883444 0.00555 -0.0025 0.5
0.0886222 0.000555 0 0.5
0.0883444 0.00666 0.0025 0.5
0.0883444 0.00666 -0.0025 0.5
0.0886222 0.0002775 -0.00125 0.5
0.0886222 0.0002775 0.00125 0.5
0.0886222 0.0008325 0.00125 0.5
0.0886222 0.0008325 -0.00125 0.5
0.0886222 0.001665 0 0.5
0.0886222 0.0002775 0.0025 0.5
0.0886222 0.0002775 -0.0025 0.5
0.0886222 0.0008325 0.0025 0.5
0.0886222 0.0008325 -0.0025 0.5
0.0886222 0.002775 0 0.5
0.0886222 0.0013875 0.0025 0.5
0.0886222 0.0013875 -0.0025 0.5
0.0886222 0.0019425 0.0025 0.5
0.0886222 0.0019425 -0.0025 0.5
0.0886222 0.0024975 0.0025 0.5
0.0886222 0.0024975 -0.0025 0.5
0.0886222 0.003885 0 0.5
0.0886222 0.0030525 0.0025 0.5
0.0886222 0.0030525 -0.0025 0.5
0.0883444 0.00777 0.0025 0.5
0.0883444 0.00777 -0.0025 0.5
0.0886222 0.0036075 0.0025 0.5
0.0886222 0.0036075 -0.0025 0.5
0.0886222 0.0041625 0.0025 0.5
0.0886222 0.0041625 -0.0025 0.5
0.0886222 0.004995 -1.81603e-19 0.5
0.0733433 0.0499492 -0.0024963 0.5
0.0733433 0.0499492 0.0024963 0.5
0.0733433 0.0499492 0.0025 0.5
0.0733433 0.0499492 -0.0025 0.5
0.0733433 0.0499508 -0.00249648 0.5
0.0733433 0.0499508 0.00249648 0.5
0.0733433 0.0499508 0.0025 0.5
0.0733433 0.0499508 -0.0025 0.5
0.073344 0.04995 -0.0025 0.5
0.073344 0.04995 0.0025 0.5
0.0886222 0.0047175 0.0025 0.5
0.0886222 0.0047175 -0.0025 0.5
0.0733425 0.0499934 0.0025 0.5
0.0733425 0.0499934 -0.0025 0.5
0.0886222 0.0052725 0.0025 0.5
0.0886222 0.0052725 -0.0025 0.5
0.0883444 0.00888 0.0025 0.5
0.0883444 0.00888 -0.0025 0.5
0.0886222 0.006105 -4.31797e-21 0.5
0.0886222 0.0058275 0.0025 0.5
0.0886222 0.0058275 -0.0025 0.5
0.0886222 0.0063825 0.0025 0.5
0.0886222 0.0063825 -0.0025 0.5
0.0886222 0.007215 3.76366e-21 0.5
0.0886222 0.0069375 -0.0025 0.5
0.0886222 0.0069375 0.0025 0.5
0.0883444 0.00999 0.0025 0.5
0.0883444 0.00999 -0.0025 0.5
0.0886222 0.0074925 -0.0025 0.5
0.0886222 0.0074925 0.0025 0.5
0.0886222 0.008325 1.10296e-21 0.5
0.0886222 0.0080475 -0.0025 0.5
0.0886222 0.0080475 0.0025 0.5
0.073334 0.050505 1.27729e-18 0.5
0.0886222 0.0086025 -0.0025 0.5
0.0886222 0.0086025 0.0025 0.5
0.0883444 0.0111 0.0025 0.5
0.0883444 0.0111 -0.0025 0.5
0.0886222 0.009435 1.92878e-21 0.5
0.0886222 0.0091575 0.0025 0.5
0.0886222 0.0091575 -0.0025 0.5
0.0886222 0.0097125 0.0025 0.5
0.0886222 0.0097125 -0.0025 0.5
0.0883444 0.01221 0.0025 0.5
0.0883444 0.01221 -0.0025 0.5
0.0886222 0.010545 3.88923e-21 0.5
0.0886222 0.0102675 0.0025 0.5
0.0886222 0.0102675 -0.0025 0.5
0.0886222 0.0108225 0.0025 0.5
0.0886222 0.0108225 -0.0025 0.5
0.0733234 0.0510409 -0.0024139 0.5
0.0733234 0.0510409 0.0024139 0.5
0.0733076 0.05106 0.0025 0.5
0.0733076 0.05106 -0.0025 0.5
0.0733234 0.0510409 -0.0025 0.5
0.0733234 0.0510409 0.0025 0.5
0.0883444 0.01332 0.0025 0.5
0.0883444 0.01332 -0.0025 0.5
0.0886222 0.0113775 0.0025 0.5
0.0886222 0.0113775 -0.0025 0.5
0.0886222 0.011655 2.78619e-21 0.5
0.073323 0.0510795 0.00241211 0.5
0.073323 0.0510795 -0.00241211 0.5
0.073323 0.0510795 0.0025 0.5
0.073323 0.0510795 -0.0025 0.5
0.0886222 0.0119325 0.0025 0.5
0.0886222 0.0119325 -0.0025 0.5
0.0886222 0.0124875 -0.0025 0.5
0.0886222 0.0124875 0.0025 0.5
0.0886222 0.012765 1.81655e-19 0.5
0.0883444 0.01443 0.0025 0.5
0.0883444 0.01443 -0.0025 0.5
0.0886222 0.0130425 -0.0025 0.5
0.0886222 0.0130425 0.0025 0.5
0.0733126 0.051615 -2.39452e-18 0.5
0.0886222 0.0135975 0.0025 0.5
0.0886222 0.0135975 -0.0025 0.5
0.0886222 0.013875 0 0.5
0.0883444 0.01554 0.0025 0.5
0.0883444 0.01554 -0.0025 0.5
0.0886222 0.0141525 0.0025 0.5
0.0886222 0.0141525 -0.0025 0.5
0.0886222 0.0147075 -0.0025 0.5
0.0886222 0.0147075 0.0025 0.5
0.0886222 0.014985 7.52748e-21 0.5
0.0883444 0.01665 0.0025 0.5
0.0883444 0.01665 -0.0025 0.5
0.0886222 0.0152625 -0.0025 0.5
0.0886222 0.0152625 0.0025 0.5
0.0733006 0.0521281 0.00231146 0.5
0.0733006 0.0521281 -0.00231146 0.5
0.0732664 0.05217 0.0025 0.5
0.0732664 0.05217 -0.0025 0.5
0.0733006 0.0521281 0.0025 0.5
0.0733006 0.0521281 -0.0025 0.5
0.0732995 0.0522129 0.00230657 0.5
0.0732995 0.0522129 -0.00230657 0.5
0.0732995 0.0522129 -0.0025 0.5
0.0732995 0.0522129 0.0025 0.5
0.0886222 0.0158175 0.0025 0.5
0.0886222 0.0158175 -0.0025 0.5
0.0886222 0.016095 0 0.5
0.0883444 0.01776 0.0025 0.5
0.0883444 0.01776 -0.0025 0.5
0.0886222 0.0163725 0.0025 0.5
0.0886222 0.0163725 -0.0025 0.5
0.0886222 0.0169275 0.0025 0.5
0.0886222 0.0169275 -0.0025 0.5
0.0886222 0.017205 0 0.5
0.0732878 0.052725 1.59145e-18 0.5
0.0886222 0.0174825 0.0025 0.5
0.0886222 0.0174825 -0.0025 0.5
0.0883444 0.01887 0.0025 0.5
0.0883444 0.01887 -0.0025 0.5
0.0886222 0.0180375 0.0025 0.5
0.0886222 0.0180375 -0.0025 0.5
0.0886222 0.018315 -4.24739e-19 0.5
0.0886222 0.0185925 0.0025 0.5
0.0886222 0.0185925 -0.0025 0.5
0.0732781 0.0532157 -0.00221029 0.5
0.0732781 0.0532157 0.00221029 0.5
0.0732265 0.05328 0.0025 0.5
0.0732265 0.05328 -0.0025 0.5
0.0732781 0.0532157 0.0025 0.5
0.0732781 0.0532157 -0.0025 0.5
0.0883444 0.01998 0.0025 0.5
0.0883444 0.01998 -0.0025 0.5
0.0732759 0.0533465 0.00220036 0.5
0.0732759 0.0533465 -0.00220036 0.5
0.0732759 0.0533465 0.0025 0.5
0.0732759 0.0533465 -0.0025 0.5
0.0886222 0.0191475 0.0025 0.5
0.0886222 0.0191475 -0.0025 0.5
0.0886222 0.019425 2.54579e-19 0.5
0.0886222 0.0197025 0.0025 0.5
0.0886222 0.0197025 -0.0025 0.5
0.0883444 0.02109 0.0025 0.5
0.0883444 0.02109 -0.0025 0.5
0.0732663 0.053835 1.14395e-18 0.5
0.0886222 0.0202575 0.0025 0.5
0.0886222 0.0202575 -0.0025 0.5
0.0886222 0.020535 -4.2863e-21 0.5
0.0886222 0.0208125 0.0025 0.5
0.0886222 0.0208125 -0.0025 0.5
0.0883444 0.0222 0.0025 0.5
0.0883444 0.0222 -0.0025 0.5
0.0886222 0.0213675 0.0025 0.5
0.0886222 0.0213675 -0.0025 0.5
0.0732612 0.0543088 0.0021341 0.5
0.0732612 0.0543088 -0.0021341 0.5
0.0886222 0.021645 -2.44648e-21 0.5
0.0731979 0.05439 0.0025 0.5
0.0731979 0.05439 -0.0025 0.5
0.0732612 0.0543088 0.0025 0.5
0.0732612 0.0543088 -0.0025 0.5
0.0732575 0.0544749 -0.00211777 0.5
0.0732575 0.0544749 0.00211777 0.5
0.0732575 0.0544749 -0.0025 0.5
0.0732575 0.0544749 0.0025 0.5
0.0886222 0.0219225 0.0025 0.5
0.0886222 0.0219225 -0.0025 0.5
0.0883444 0.02331 0.0025 0.5
0.0883444 0.02331 -0.0025 0.5
0.0886222 0.0224775 0.0025 0.5
0.0886222 0.0224775 -0.0025 0.5
0.0886222 0.022755 -2.49561e-19 0.5
0.0732524 0.054945 -2.25145e-18 0.5
0.0886222 0.0230325 0.0025 0.5
0.0886222 0.0230325 -0.0025 0.5
0.0883444 0.02442 0.0025 0.5
0.0883444 0.02442 -0.0025 0.5
0.0886222 0.0235875 0.0025 0.5
0.0886222 0.0235875 -0.0025 0.5
0.0886222 0.023865 4.33092e-19 0.5
0.0732468 0.0554044 -0.00206934 0.5
0.0732468 0.0554044 0.00206934 0.5
0.0732468 0.0554044 0.0025 0.5
0.0732468 0.0554044 -0.0025 0.5
0.0731758 0.0555 0.0025 0.5
0.0731758 0.0555 -0.0025 0.5
0.0886222 0.0241425 0.0025 0.5
0.0886222 0.0241425 -0.0025 0.5
0.073242 0.0556004 0.00204769 0.5
0.073242 0.0556004 -0.00204769 0.5
0.073242 0.0556004 0.0025 0.5
0.073242 0.0556004 -0.0025 0.5
0.0883444 0.02553 0.0025 0.5
0.0883444 0.02553 -0.0025 0.5
0.0886222 0.0246975 -0.0025 0.5
0.0886222 0.0246975 0.0025 0.5
0.0886222 0.024975 1.19177e-21 0.5
0.0886222 0.0252525 0.0025 0.5
0.0886222 0.0252525 -0.0025 0.5
0.0732363 0.056055 2.9982e-18 0.5
0.0883444 0.02664 0.0025 0.5
0.0883444 0.02664 -0.0025 0.5
0.0886222 0.0258075 0.0025 0.5
0.0886222 0.0258075 -0.0025 0.5
0.0886222 0.026085 9.22105e-21 0.5
0.0886222 0.0263625 0.0025 0.5
0.0886222 0.0263625 -0.0025 0.5
0.0732308 0.0564984 -0.00199752 0.5
0.0732308 0.0564984 0.00199752 0.5
0.0732308 0.0564984 -0.0025 0.5
0.0732308 0.0564984 0.0025 0.5
0.0731526 0.05661 0.0025 0.5
0.0731526 0.05661 -0.0025 0.5
0.0883444 0.02775 0.0025 0.5
0.0883444 0.02775 -0.0025 0.5
0.0732251 0.0567273 -0.00197166 0.5
0.0732251 0.0567273 0.00197166 0.5
0.0886222 0.0269175 0.0025 0.5
0.0886222 0.0269175 -0.0025 0.5
0.0732251 0.0567273 -0.0025 0.5
0.0732251 0.0567273 0.0025 0.5
0.0886222 0.027195 1.2044e-20 0.5
0.0886222 0.0274725 0.0025 0.5
0.0886222 0.0274725 -0.0025 0.5
0.0732195 0.057165 -1.17407e-18 0.5
0.0883444 0.02886 0.0025 0.5
0.0883444 0.02886 -0.0025 0.5
0.0886222 0.0280275 0.0025 0.5
0.0886222 0.0280275 -0.0025 0.5
0.0886222 0.028305 -8.22717e-21 0.5
0.0886222 0.0285825 0.0025 0.5
0.0886222 0.0285825 -0.0025 0.5
0.0732144 0.0575921 0.00192365 0.5
0.0732144 0.0575921 -0.00192365 0.5
0.0732144 0.0575921 0.0025 0.5
0.0732144 0.0575921 -0.0025 0.5
0.0731298 0.05772 0.0025 0.5
0.0731298 0.05772 -0.0025 0.5
0.0886222 0.0291375 0.0025 0.5
0.0886222 0.0291375 -0.0025 0.5
0.0883444 0.02997 0.0025 0.5
0.0883444 0.02997 -0.0025 0.5
0.0732081 0.0578543 -0.00189511 0.5
0.0732081 0.0578543 0.00189511 0.5
0.0732081 0.0578543 0.0025 0.5
0.0732081 0.0578543 -0.0025 0.5
0.0886222 0.029415 -6.85063e-19 0.5
0.0886222 0.0296925 0.0025 0.5
0.0886222 0.0296925 -0.0025 0.5
0.0732029 0.058275 1.42441e-18 0.5
0.0886222 0.0302475 0.0025 0.5
0.0886222 0.0302475 -0.0025 0.5
0.0883444 0.03108 0.0025 0.5
0.0883444 0.03108 -0.0025 0.5
0.0886222 0.030525 6.22217e-19 0.5
0.0731984 0.0586861 -0.00185167 0.5
0.0731984 0.0586861 0.00185167 0.5
0.0731984 0.0586861 -0.0025 0.5
0.0731984 0.0586861 0.0025 0.5
0.0886222 0.0308025 0.0025 0.5
0.0886222 0.0308025 -0.0025 0.5
0.0731088 0.05883 0.0025 0.5
0.0731088 0.05883 -0.0025 0.5
0.0731919 0.0589804 -0.00182233 0.5
0.0731919 0.0589804 0.00182233 0.5
0.0731919 0.0589804 -0.0025 0.5
0.0731919 0.0589804 0.0025 0.5
0.0886222 0.0313575 0.0025 0.5
0.0886222 0.0313575 -0.0025 0.5
0.0883444 0.03219 0.0025 0.5
0.0883444 0.03219 -0.0025 0.5
0.0886222 0.031635 -3.88923e-21 0.5
0.0886222 0.0319125 0.0025 0.5
0.0886222 0.0319125 -0.0025 0.5
0.0731874 0.059385 -1.96555e-18 0.5
0.0886222 0.0324675 0.0025 0.5
0.0886222 0.0324675 -0.0025 0.5
0.0883444 0.0333 0.0025 0.5
0.0883444 0.0333 -0.0025 0.5
0.0886222 0.032745 0 0.5
0.0731836 0.0597812 -0.00178489 0.5
0.0731836 0.0597812 0.00178489 0.5
0.0731836 0.0597812 -0.0025 0.5
0.0731836 0.0597812 0.0025 0.5
0.0730902 0.05994 0.0025 0.5
0.0730902 0.05994 -0.0025 0.5
0.0886222 0.0330225 0.0025 0.5
0.0886222 0.0330225 -0.0025 0.5
0.0731773 0.060105 0.00175676 0.5
0.0731773 0.060105 -0.00175676 0.5
0.0731773 0.060105 0.0025 0.5
0.0731773 0.060105 -0.0025 0.5
0.0886222 0.0335775 0.0025 0.5
0.0886222 0.0335775 -0.0025 0.5
0.0883444 0.03441 0.0025 0.5
0.0883444 0.03441 -0.0025 0.5
0.0886222 0.033855 0 0.5
0.0731735 0.060495 1.70857e-19 0.5
0.0886222 0.0341325 0.0025 0.5
0.0886222 0.0341325 -0.0025 0.5
0.0731705 0.0608782 0.00172603 0.5
0.0731705 0.0608782 -0.00172603 0.5
0.0886222 0.0346875 0.0025 0.5
0.0886222 0.0346875 -0.0025 0.5
0.0731705 0.0608782 0.0025 0.5
0.0731705 0.0608782 -0.0025 0.5
0.0883444 0.03552 0.0025 0.5
0.0883444 0.03552 -0.0025 0.5
0.0730746 0.06105 0.0025 0.5
0.0730746 0.06105 -0.0025 0.5
0.0886222 0.034965 -3.39789e-22 0.5
0.0886222 0.0352425 0.0025 0.5
0.0886222 0.0352425 -0.0025 0.5
0.0731649 0.0612274 0.00170099 0.5
0.0731649 0.0612274 -0.00170099 0.5
0.0731649 0.0612274 0.0025 0.5
0.0731649 0.0612274 -0.0025 0.5
0.0886222 0.0357975 0.0025 0.5
0.0886222 0.0357975 -0.0025 0.5
0.0731619 0.061605 1.00195e-18 0.5
0.0883444 0.03663 0.0025 0.5
0.0883444 0.03663 -0.0025 0.5
0.0886222 0.036075 1.76716e-21 0.5
0.0886222 0.0363525 0.0025 0.5
0.0886222 0.0363525 -0.0025 0.5
0.0731596 0.0619773 -0.00167713 0.5
0.0731596 0.0619773 0.00167713 0.5
0.0731596 0.0619773 0.0025 0.5
0.0731596 0.0619773 -0.0025 0.5
0.0730623 0.06216 0.0025 0.5
0.0730623 0.06216 -0.0025 0.5
0.0886222 0.0369075 0.0025 0.5
0.0886222 0.0369075 -0.0025 0.5
0.0883444 0.03774 0.0025 0.5
0.0883444 0.03774 -0.0025 0.5
0.0886222 0.037185 -6.78638e-19 0.5
0.0731551 0.0623472 0.00165672 0.5
0.0731551 0.0623472 -0.00165672 0.5
0.0731551 0.0623472 0.0025 0.5
0.0731551 0.0623472 -0.0025 0.5
0.0886222 0.0374625 0.0025 0.5
0.0886222 0.0374625 -0.0025 0.5
0.0731528 0.062715 2.6334e-19 0.5
0.0886222 0.0380175 -0.0025 0.5
0.0886222 0.0380175 0.0025 0.5
0.0883444 0.03885 0.0025 0.5
0.0883444 0.03885 -0.0025 0.5
0.0886222 0.038295 1.29532e-18 0.5