0 	0 	0 	0
0.000446734 	0.000215643 	0.0035938 	1.68616e-26
0.000893467 	0.000430853 	0.00716284 	3.41557e-26
0.0013402 	0.000595525 	0.00985507 	3.8832e-26
0.00178693 	0.000712397 	0.0117207 	3.13912e-26
0.00223367 	0.000824236 	0.0135445 	2.40431e-26
0.0026804 	0.000833221 	0.0142898 	1.41897e-26
0.00312714 	0.000842205 	0.0150351 	4.33637e-27
0.00357387 	0.000830547 	0.0155497 	3.63306e-27
0.0040206 	0.000803742 	0.0158758 	1.06863e-26
0.00446734 	0.000775893 	0.0161918 	1.75847e-26
0.00491407 	0.00074291 	0.0163294 	3.1029e-26
0.0053608 	0.000709927 	0.016467 	4.44733e-26
0.00580754 	0.000674843 	0.0165153 	4.98298e-26
0.00625427 	0.000639086 	0.0164944 	4.94858e-26
0.00670101 	0.00060264 	0.0164625 	4.85216e-26
0.00714774 	0.000563653 	0.0163008 	3.50773e-26
0.00759447 	0.000524666 	0.0161391 	2.1633e-26
0.00804121 	0.000484014 	0.0159122 	1.25972e-26
0.00848794 	0.000442775 	0.0156404 	5.88795e-27
0.00893467 	0.000401218 	0.0153605 	0
0.00938141 	0.00035921 	0.015011 	0
0.00982814 	0.000317202 	0.0146615 	0
0.0102749 	0.000275343 	0.0142805 	0
0.0107216 	0.00023383 	0.01388 	0
0.0111683 	0.000192404 	0.0134755 	0
0.0116151 	0.000152254 	0.013044 	0
0.0120618 	0.000112104 	0.0126124 	0
0.0125085 	7.31102e-05 	0.0121707 	0
0.0129553 	3.48136e-05 	0.0117232 	0
0.013402 	-3.15136e-06 	0.0112751 	0
0.0138487 	-3.93775e-05 	0.0108237 	0
0.0142955 	-7.56037e-05 	0.0103722 	0
0.0147422 	-0.000110377 	0.00992433 	0
0.0151889 	-0.000144496 	0.00947834 	0
0.0156357 	-0.000178179 	0.00903451 	0
0.0160824 	-0.00021027 	0.00860103 	0
0.0165291 	-0.000242361 	0.00816755 	0
0.0169759 	-0.000273081 	0.00774598 	0
0.0174226 	-0.00030332 	0.00732981 	0
0.0178693 	-0.000333138 	0.00691769 	0
0.0183161 	-0.000361794 	0.00652164 	0
0.0187628 	-0.000390451 	0.0061256 	0
0.0192095 	-0.000418117 	0.00574473 	0
0.0196563 	-0.000445534 	0.00536994 	0
0.020103 	-0.000472658 	0.00499992 	0
0.0205497 	-0.000499228 	0.00464617 	0
0.0209965 	-0.000525798 	0.00429241 	0
0.0214432 	-0.000551969 	0.00395321 	0
0.0218899 	-0.000578123 	0.00361914 	0
0.0223367 	-0.00060421 	0.00328946 	0
0.0227834 	-0.000630413 	0.00297282 	0
0.0232302 	-0.000656616 	0.00265618 	0
0.0236769 	-0.000683168 	0.0023506 	0
0.0241236 	-0.000709911 	0.00204844 	0
0.0245704 	-0.000736892 	0.00174932 	0
0.0250171 	-0.000764657 	0.00145815 	0
0.0254638 	-0.000792421 	0.00116698 	0
0.0259106 	-0.000821272 	0.00088146 	0
0.0263573 	-0.00085044 	0.000597443 	0
0.026804 	-0.000880167 	0.000314346 	0
0.0272508 	-0.000911196 	3.33832e-05 	0
0.0276975 	-0.000942225 	-0.00024758 	0
0.0281442 	-0.000975243 	-0.00052943 	0
0.028591 	-0.00100869 	-0.000811476 	0
0.0290377 	-0.00104309 	-0.00109521 	0
0.0294844 	-0.0010793 	-0.00138238 	0
0.0299312 	-0.00111551 	-0.00166955 	0
0.0303779 	-0.00115433 	-0.00196424 	0
0.0308246 	-0.00119357 	-0.00226035 	0
0.0312714 	-0.00123406 	-0.00256085 	0
0.0317181 	-0.00127663 	-0.00286935 	0
0.0321648 	-0.00131921 	-0.00317785 	0
0.0326116 	-0.00136497 	-0.00349962 	0
0.0330583 	-0.0014111 	-0.00382343 	0
0.033505 	-0.00145876 	-0.0041539 	0
0.0339518 	-0.0015086 	-0.00449527 	0
0.0343985 	-0.00155845 	-0.00483665 	0
0.0348452 	-0.00161174 	-0.0051949 	0
0.035292 	-0.00166531 	-0.00555521 	0
0.0357387 	-0.00172048 	-0.0059233 	0
0.0361854 	-0.00177768 	-0.00630286 	0
0.0366322 	-0.00183489 	-0.00668241 	0
0.0370789 	-0.00189531 	-0.00707874 	0
0.0375256 	-0.00195589 	-0.00747657 	0
0.0379724 	-0.00201786 	-0.00788122 	-6.78581e-27
0.0384191 	-0.00208138 	-0.00829485 	-2.36412e-26
0.0388658 	-0.0021449 	-0.00870847 	-4.04966e-26
0.0393126 	-0.00221071 	-0.00913305 	-5.62585e-26
0.0397593 	-0.00227654 	-0.00955824 	-7.27444e-26
0.040206 	-0.00234314 	-0.00998594 	-7.32255e-26
0.0406528 	-0.00241042 	-0.0104165 	-5.40089e-26
0.0410995 	-0.0024777 	-0.010847 	-3.47923e-26
0.0415462 	-0.00254538 	-0.0112746 	-1.63194e-26
0.041993 	-0.00261299 	-0.011702 	2.57202e-27
0.0424397 	-0.00268013 	-0.0121228 	1.1006e-26
0.0428864 	-0.00274663 	-0.0125361 	8.64479e-27
0.0433332 	-0.0028131 	-0.0129492 	6.06373e-27
0.0437799 	-0.0028766 	-0.0133346 	3.55428e-27
0.0442266 	-0.00294003 	-0.0137193 	1.14882e-27
0.0446734 	-0.0030005 	-0.0140806 	-2.10372e-27
0.0451201 	-0.00305811 	-0.0144183 	-6.50859e-27
0.0455668 	-0.00311542 	-0.0147547 	-1.12744e-26
0.0460136 	-0.00316361 	-0.0150219 	-1.74262e-26
0.0464603 	-0.00321174 	-0.0152888 	-2.33619e-26
0.046907 	-0.00325252 	-0.015504 	-2.41089e-26
0.0473538 	-0.0032871 	-0.0156724 	-1.97041e-26
0.0478005 	-0.0033207 	-0.0158361 	-1.44094e-26
0.0482472 	-0.00333873 	-0.0158804 	-8.47371e-27
0.048694 	-0.00335675 	-0.0159247 	-2.53804e-27
0.0491407 	-0.00336557 	-0.0158928 	0
0.0495874 	-0.00336766 	-0.015799 	0
0.0500342 	-0.00336868 	-0.015696 	1.46652e-27
0.0504809 	-0.003361 	-0.0154556 	3.80471e-26
0.0509276 	-0.00335332 	-0.0152152 	7.46276e-26
0.0513744 	-0.0033345 	-0.014839 	1.27065e-25
0.0518211 	-0.00330763 	-0.0143604 	1.83441e-25
0.0522678 	-0.00326967 	-0.0138349 	2.34787e-25
0.0527146 	-0.00309584 	-0.0127954 	1.98207e-25
0.0531613 	-0.00292201 	-0.0117558 	1.61626e-25
0.053608 	-0.00250483 	-0.0101619 	1.05145e-25
0.0540548 	-0.00192174 	-0.00820393 	4.87698e-26
0.0545015 	-0.00133149 	-0.00621867 	0
0.0549482 	-0.000835449 	-0.00430002 	0
0.055395 	-0.00033941 	-0.00238136 	0
0.0558417 	-0.000119476 	-0.0012517 	0
0.0562884 	-5.44817e-05 	-0.000571626 	0
0.0567352 	1.03477e-07 	-2.9341e-07 	0
0.0571819 	1.72327e-08 	-2.52266e-07 	0
0.0576286 	-6.90117e-08 	-2.11122e-07 	0
0.0580754 	-1.19511e-07 	-2.01018e-07 	0
0.0585221 	-1.51676e-07 	-2.07892e-07 	0
0.0589688 	-1.79185e-07 	-2.14213e-07 	0
0.0594156 	-1.8448e-07 	-2.20431e-07 	0
0.0598623 	-1.89775e-07 	-2.26648e-07 	0
0.060309 	-1.88323e-07 	-2.30911e-07 	0
0.0607558 	-1.83731e-07 	-2.34494e-07 	0
0.0612025 	-1.78613e-07 	-2.37682e-07 	0
0.0616492 	-1.71247e-07 	-2.39443e-07 	0
0.062096 	-1.63881e-07 	-2.41204e-07 	0
0.0625427 	-1.56404e-07 	-2.42335e-07 	0
0.0629894 	-1.48873e-07 	-2.43202e-07 	0
0.0634362 	-1.41486e-07 	-2.44021e-07 	0
0.0638829 	-1.34621e-07 	-2.446e-07 	0
0.0643296 	-1.27756e-07 	-2.45179e-07 	0
0.0647764 	-1.21502e-07 	-2.45811e-07 	0
0.0652231 	-1.15481e-07 	-2.46439e-07 	0
0.0656698 	-1.09647e-07 	-2.47137e-07 	0
0.0661166 	-1.04428e-07 	-2.47985e-07 	0
0.0665633 	-9.92091e-08 	-2.48834e-07 	0
0.0670101 	-9.45097e-08 	-2.49925e-07 	0
0.0674568 	-8.99908e-08 	-2.51076e-07 	0
0.0679035 	-8.56211e-08 	-2.52329e-07 	0
0.0683503 	-8.16953e-08 	-2.53817e-07 	0
0.068797 	-7.77695e-08 	-2.55306e-07 	0
0.0692437 	-7.42225e-08 	-2.57075e-07 	0
0.0696905 	-7.07946e-08 	-2.58913e-07 	0
0.0701372 	-6.74794e-08 	-2.6086e-07 	0
0.0705839 	-6.44688e-08 	-2.63047e-07 	0
0.0710307 	-6.14582e-08 	-2.65234e-07 	0
0.0714774 	-5.87205e-08 	-2.67705e-07 	0
0.0719241 	-5.60602e-08 	-2.70238e-07 	0
0.0723709 	-5.34846e-08 	-2.72884e-07 	0
0.0728176 	-5.11189e-08 	-2.75758e-07 	0
0.0732643 	-4.87532e-08 	-2.78632e-07 	0
0.0737111 	-4.6585e-08 	-2.81788e-07 	0
0.0741578 	-4.44675e-08 	-2.84997e-07 	0
0.0746045 	-4.24133e-08 	-2.88322e-07 	8.73089e-30
0.0750513 	-4.05049e-08 	-2.91862e-07 	3.64401e-29
0.075498 	-3.85964e-08 	-2.95402e-07 	6.41493e-29
0.0759447 	-3.68303e-08 	-2.99224e-07 	9.83568e-29
0.0763915 	-3.50977e-08 	-3.03091e-07 	1.29416e-28
0.0768382 	-3.34115e-08 	-3.0708e-07 	1.39697e-28
0.0772849 	-3.18264e-08 	-3.11271e-07 	1.11988e-28
0.0777317 	-3.02413e-08 	-3.15463e-07 	8.4279e-29
0.0781784 	-2.87565e-08 	-3.19939e-07 	4.93872e-29
0.0786251 	-2.72942e-08 	-3.24453e-07 	1.83278e-29
0.0790719 	-2.5864e-08 	-3.29094e-07 	0
0.0795186 	-2.45028e-08 	-3.33929e-07 	0
0.0799653 	-2.31416e-08 	-3.38765e-07 	0
0.0804121 	-2.18472e-08 	-3.43891e-07 	0
0.0808588 	-2.0568e-08 	-3.49047e-07 	0
0.0813055 	-1.93085e-08 	-3.54337e-07 	3.32582e-29
0.0817523 	-1.80941e-08 	-3.59814e-07 	1.18516e-28
0.082199 	-1.68796e-08 	-3.65291e-07 	2.03774e-28
0.0826457 	-1.57035e-08 	-3.71066e-07 	2.95788e-28
0.0830925 	-1.45382e-08 	-3.76864e-07 	3.8417e-28
0.0835392 	-1.33809e-08 	-3.82803e-07 	3.59065e-28
0.0839859 	-1.22501e-08 	-3.88923e-07 	1.82922e-28
0.0844327 	-1.11193e-08 	-3.95043e-07 	6.78017e-30
0.0848794 	-1.00013e-08 	-4.0147e-07 	-1.8239e-28
0.0853261 	-8.89146e-09 	-4.07912e-07 	-3.63535e-28
0.0857729 	-7.77818e-09 	-4.14505e-07 	-4.17008e-28
0.0862196 	-6.67632e-09 	-4.2127e-07 	-3.26124e-28
0.0866663 	-5.57446e-09 	-4.28036e-07 	-2.3524e-28
0.0871131 	-4.46094e-09 	-4.3511e-07 	-1.38224e-28
0.0875598 	-3.35444e-09 	-4.42191e-07 	-4.54618e-29
0.0880065 	-2.23595e-09 	-3.62625e-07 	0
0.0884533 	-1.11984e-09 	-1.83389e-07 	0
0.0889 	0 	0 	0
