/*--------------------------------*- C++ -*----------------------------------*\
  =========                 |
  \\      /  F ield         | OpenFOAM: The Open Source CFD Toolbox
   \\    /   O peration     | Website:  https://openfoam.org
    \\  /    A nd           | Version:  6
     \\/     M anipulation  |
\*---------------------------------------------------------------------------*/
FoamFile
{
    version     2.0;
    format      ascii;
    class       volScalarField;
    location    "100";
    object      epsilon;
}
// * * * * * * * * * * * * * * * * * * * * * * * * * * * * * * * * * * * * * //

dimensions      [0 2 -3 0 0 0 0];

internalField   nonuniform List<scalar> 
12225
(
285.523
270.712
257.907
243.825
232.441
223.117
216.773
212.722
212.758
213.987
217.286
220.96
228.249
232.944
241.585
247.325
254.655
265.893
52.4869
91.9002
106.961
114.778
124.832
136.843
152.703
170.011
191.238
211.133
235.586
255.875
281.888
300.1
326.611
340.884
369.496
377.95
20.526
34.8809
44.6666
50.4826
55.3854
59.6309
64.6564
69.6817
76.3359
83.2676
91.52
99.506
108.375
117.373
125.998
136.348
143.738
156.727
16.003
19.4888
24.0766
27.5698
30.4914
32.8793
35.1517
37.3088
39.5044
41.9473
44.3546
47.2646
49.7358
53.1717
55.5621
59.5193
61.8732
66.428
15.0386
15.7133
17.3969
19.0814
20.6368
22.0303
23.2444
24.438
25.4445
26.6069
27.5298
28.7816
29.6533
31.032
31.8707
33.3622
34.229
35.8905
14.7897
14.8258
15.2493
15.8686
16.5663
17.2889
17.9229
18.5873
19.1195
19.7394
20.1966
20.8089
21.2184
21.842
22.223
22.8655
23.2375
23.9486
14.7657
14.6147
14.6409
14.726
14.9345
15.2207
15.4912
15.8102
16.0712
16.385
16.6198
16.9247
17.1357
17.4359
17.6273
17.9304
18.1067
18.4443
14.7686
14.5867
14.4659
14.3802
14.3676
14.3895
14.4395
14.5338
14.6185
14.7375
14.8316
14.9583
15.0499
15.1802
15.2662
15.4001
15.4813
15.6369
14.768
14.591
14.4349
14.2963
14.185
14.1044
14.0398
14.0067
13.9814
13.9787
13.9811
13.9921
14.0048
14.0309
14.0493
14.0828
14.1083
14.1539
14.7665
14.594
14.432
14.2821
14.1429
14.0219
13.9114
13.8193
13.7369
13.6697
13.6101
13.5633
13.5181
13.4874
13.4522
13.4352
13.4042
13.4042
14.7659
14.5945
14.4322
14.2803
14.1361
14.0032
13.8781
13.7643
13.658
13.5627
13.4733
13.3949
13.3195
13.2558
13.1914
13.1408
13.0842
13.0461
14.7657
14.5943
14.4321
14.2798
14.1353
13.9998
13.8714
13.7517
13.6384
13.5335
13.4338
13.3427
13.2554
13.1767
13.0999
13.0326
12.9646
12.9076
14.7657
14.5941
14.432
14.2794
14.135
13.9989
13.8698
13.7484
13.6331
13.5248
13.4218
13.3255
13.2335
13.1481
13.066
12.9904
12.917
12.8503
14.7657
14.594
14.4318
14.2791
14.1346
13.9983
13.8692
13.7472
13.6315
13.5222
13.4183
13.3202
13.2269
13.1388
13.0549
12.9758
12.9002
12.8292
14.7657
14.5938
14.4317
14.2787
14.1342
13.9977
13.8686
13.7464
13.6307
13.5211
13.4171
13.3185
13.2249
13.1361
13.0516
12.9716
12.8953
12.823
14.7657
14.5938
14.4316
14.2785
14.1339
13.9973
13.8681
13.7458
13.63
13.5203
13.4162
13.3175
13.2237
13.1348
13.0502
12.9699
12.8935
12.8208
14.7657
14.5937
14.4315
14.2783
14.1337
13.997
13.8677
13.7453
13.6295
13.5196
13.4155
13.3167
13.2229
13.1338
13.0492
12.9688
12.8923
12.8195
14.7657
14.5937
14.4314
14.2782
14.1335
13.9968
13.8674
13.745
13.6291
13.5192
13.415
13.3161
13.2223
13.1331
13.0484
12.9679
12.8913
12.8185
14.7657
14.5937
14.4314
14.2782
14.1335
13.9967
13.8673
13.7449
13.6289
13.519
13.4147
13.3158
13.2219
13.1327
13.048
12.9674
12.8908
12.8179
14.7657
14.5937
14.4314
14.2782
14.1336
13.9968
13.8675
13.745
13.6291
13.5191
13.4149
13.316
13.2222
13.1329
13.0483
12.9677
12.8911
12.8182
14.7657
14.5937
14.4315
14.2784
14.1338
13.9971
13.8678
13.7454
13.6295
13.5197
13.4155
13.3168
13.2231
13.1341
13.0496
12.9693
12.893
12.8204
14.7657
14.5937
14.4316
14.2785
14.1341
13.9975
13.8685
13.7465
13.6312
13.5221
13.4192
13.3215
13.2295
13.1421
13.0597
12.9813
12.9077
12.8372
14.7659
14.5937
14.4318
14.2788
14.1353
14.0002
13.8742
13.756
13.6464
13.5436
13.4486
13.3593
13.2772
13.1994
13.1284
13.0603
12.9991
12.9389
14.7661
14.5928
14.4329
14.2844
14.1515
14.0322
13.929
13.8376
13.7593
13.6894
13.6307
13.577
13.5328
13.4905
13.4574
13.4229
13.3987
13.3691
14.7641
14.5936
14.461
14.3604
14.303
14.2767
14.2796
14.2939
14.3202
14.3529
14.3957
14.4343
14.4821
14.5213
14.5714
14.6082
14.6607
14.6927
14.757
14.6921
14.7579
14.9172
15.1827
15.4611
15.7474
16.0119
16.272
16.5034
16.7354
16.9378
17.1496
17.3295
17.5291
17.6914
17.886
18.0325
14.9574
15.4344
16.5693
17.6884
18.7051
19.5676
20.3367
20.9964
21.6184
22.1649
22.717
23.2086
23.7367
24.2004
24.7276
25.1764
25.717
26.1563
16.2579
20.9389
25.0149
27.7587
29.784
31.358
32.7754
34.0568
35.3564
36.6128
37.9697
39.2904
40.7514
42.1338
43.701
45.1533
46.8566
48.3263
29.9428
47.2246
54.8702
58.6724
61.6123
64.4292
67.575
70.972
74.7276
78.6992
82.9646
87.3167
91.8692
96.404
101.042
105.552
110.09
114.475
165.79
160.073
154.899
149.564
144.48
139.677
135.614
132.109
129.269
126.971
125.317
124.039
123.332
122.818
122.815
122.962
123.244
123.793
3.55415
2.23655
3.33796
4.30663
5.17801
5.97156
6.70361
7.37166
7.96015
8.43094
8.72226
8.68641
8.01109
8.05618
8.45622
38.15
42.0619
45.4056
47.5244
48.3051
47.3414
44.553
49.4568
55.8813
63.0418
71.0085
79.7774
89.2843
99.5323
110.435
121.983
134.078
146.706
159.762
173.232
187.016
201.112
215.424
229.963
244.644
259.488
274.419
289.47
304.576
319.77
334.994
350.282
365.584
380.933
396.284
411.668
427.044
442.439
457.814
473.19
488.534
503.86
519.141
534.384
549.567
564.687
579.735
594.694
609.568
624.325
638.985
653.5
667.899
682.125
696.228
710.139
723.936
737.535
751.04
764.35
777.591
790.65
803.678
816.56
829.466
842.259
855.136
867.951
880.921
893.862
907.017
920.202
933.658
947.247
961.136
975.255
989.512
1003.83
1018
1031.66
1043.93
1053.05
1052.94
1066.11
1095.91
1099.72
1128.88
1136.94
1157.76
1162.26
1166.41
1179.39
1200.43
1218.63
1222.63
1219.96
1229.42
1250.1
1247.42
1253.37
1259.55
1263.75
1273.52
1269.25
1276.87
1271.11
1267.38
1260.21
1251.08
1239.97
1226.96
1212
1195.13
1176.2
1155.39
1132.7
1108.3
1082.31
1054.92
1025.89
995.55
964.213
932.088
899.41
866.393
833.052
799.83
767.457
734.573
703.943
681.828
662.067
642.72
623.579
604.734
586.232
568.148
550.564
533.173
516.071
499.738
484.06
468.76
453.911
439.606
425.935
412.935
400.549
388.738
377.518
366.875
356.785
347.225
338.183
329.624
321.528
313.833
306.567
299.49
292.99
285.891
280.372
271.219
267.405
243.351
7.93608
4.86283
4.60347
4.8386
5.27022
5.80994
6.43029
7.11841
7.87079
8.68675
9.60841
10.7487
12.3698
14.3943
17.2126
21.6995
24.6298
27.2175
29.731
32.313
35.1242
38.2367
42.2158
46.5658
51.1891
56.0703
61.1873
66.499
71.9727
77.5807
83.3083
89.1338
95.0483
101.035
107.089
113.197
119.359
125.565
131.817
138.106
144.438
150.806
157.217
163.669
170.152
176.661
183.199
189.759
196.343
202.946
209.569
216.205
222.856
229.515
236.181
242.848
249.515
256.175
262.827
269.466
276.086
282.685
289.257
295.798
302.303
308.769
315.189
321.562
327.881
334.146
340.349
346.497
352.581
358.61
364.577
370.492
376.348
382.16
387.921
393.65
399.335
405
410.632
416.255
421.851
427.448
433.028
438.614
444.189
449.769
455.31
460.773
466.108
471.246
476.094
480.533
484.508
488.275
493.853
500.171
504.252
510.176
513.832
518.154
520.736
523.85
528.168
532.42
536.964
539.186
541.266
544.758
548.299
549.166
551.001
551.092
552.608
553.975
554.09
556.386
554.58
553.205
550.906
547.846
544.144
539.771
534.716
528.972
522.501
515.325
507.41
498.773
489.447
479.476
468.854
457.662
445.987
433.9
421.476
408.79
395.884
382.85
369.846
356.719
343.786
332.301
321.525
311.055
300.782
290.719
280.89
271.316
262.033
252.962
243.921
235.164
226.734
218.575
210.695
203.108
195.842
188.915
182.317
176.036
170.069
164.411
159.052
153.98
149.189
144.664
140.399
136.369
132.591
128.984
125.696
122.375
119.775
116.436
116.748
117.057
14.3932
7.89088
6.81824
6.71713
6.97582
7.44006
8.06448
8.84412
9.79459
10.9505
12.3469
14.0243
16.0337
18.3112
20.872
23.6919
26.4003
29.064
31.7443
34.5017
37.385
40.6657
44.3133
48.1801
52.2057
56.3753
60.6253
64.9302
69.3224
73.8025
78.3659
83.0038
87.7114
92.4841
97.322
102.217
107.165
112.163
117.209
122.3
127.436
132.613
137.832
143.09
148.383
153.71
159.069
164.458
169.877
175.322
180.793
186.287
191.802
197.335
202.884
208.447
214.019
219.599
225.182
230.766
236.346
241.919
247.48
253.026
258.551
264.051
269.522
274.96
280.358
285.715
291.025
296.285
301.491
306.642
311.733
316.764
321.731
326.634
331.472
336.243
340.947
345.584
350.152
354.653
359.084
363.444
367.731
371.943
376.075
380.123
384.07
387.897
391.579
395.101
398.449
401.635
404.723
407.872
411.312
414.676
417.607
420.649
423.186
425.698
427.909
430.295
432.879
435.334
437.614
439.373
441.155
443.094
444.762
445.839
446.982
447.624
448.153
448.496
448.578
448.735
447.779
446.622
444.954
442.764
440.078
436.871
433.116
428.797
423.895
418.406
412.324
405.658
398.43
390.665
382.388
373.647
364.498
354.995
345.192
335.14
324.884
314.478
303.999
293.491
283.136
273.319
263.912
254.77
245.835
237.106
228.6
220.331
212.316
204.536
196.944
189.597
182.487
175.564
168.879
162.431
156.234
150.308
144.649
139.252
134.117
129.241
124.615
120.233
116.09
112.175
108.484
105.003
101.736
98.6499
95.8024
93.0664
90.7457
88.2871
87.372
87.1991
21.7284
11.3346
9.45268
9.06117
9.20504
9.65134
10.3212
11.1928
12.2687
13.5616
15.0834
16.8359
18.7987
21.0175
23.4409
26.0152
28.6676
31.3874
34.1981
37.1478
40.3042
43.6227
47.1083
50.732
54.4655
58.2876
62.2121
66.2489
70.3811
74.604
78.9147
83.2981
87.7449
92.2433
96.807
101.435
106.127
110.881
115.693
120.562
125.486
130.462
135.489
140.563
145.684
150.849
156.056
161.304
166.59
171.914
177.273
182.665
188.089
193.542
199.022
204.526
210.052
215.597
221.157
226.73
232.31
237.895
243.479
249.058
254.627
260.182
265.715
271.222
276.698
282.135
287.529
292.874
298.163
303.392
308.554
313.644
318.658
323.588
328.432
333.185
337.841
342.398
346.851
351.197
355.431
359.551
363.551
367.427
371.175
374.791
378.268
381.595
384.763
387.769
390.621
393.341
395.97
398.563
401.143
403.606
405.886
408.06
410.037
411.913
413.68
415.449
417.204
418.846
420.341
421.65
422.893
424.081
425.088
425.835
426.464
426.718
426.662
426.59
426.29
425.764
424.75
423.415
421.672
419.489
416.854
413.739
410.098
405.924
401.207
395.935
390.109
383.734
376.827
369.411
361.517
353.185
344.462
335.397
326.038
316.434
306.636
296.713
286.745
276.804
267.006
257.5
248.281
239.303
230.544
222.008
213.706
205.653
197.858
190.319
183.022
175.984
169.202
162.663
156.37
150.283
144.412
138.78
133.383
128.224
123.303
118.62
114.169
109.947
105.948
102.164
98.5937
95.2278
92.0655
89.0904
86.3263
83.7272
81.4223
79.2374
77.6924
77.0798
29.3888
15.0995
12.3367
11.644
11.6652
12.0798
12.7671
13.6833
14.8156
16.1635
17.7288
19.51
21.4998
23.6887
26.0533
28.5648
31.1969
33.9384
36.794
39.7778
42.904
46.1696
49.5687
53.0886
56.7186
60.4519
64.2889
68.2286
72.266
76.3951
80.6112
84.9155
89.3071
93.7861
98.3514
102.998
107.722
112.523
117.396
122.34
127.353
132.431
137.574
142.777
148.04
153.36
158.735
164.164
169.644
175.174
180.751
186.375
192.043
197.753
203.502
209.288
215.11
220.962
226.843
232.748
238.674
244.615
250.568
256.526
262.483
268.434
274.372
280.29
286.18
292.035
297.846
303.607
309.308
314.941
320.497
325.969
331.347
336.625
341.793
346.845
351.773
356.57
361.23
365.747
370.115
374.328
378.382
382.272
385.994
389.544
392.922
396.119
399.134
401.968
404.632
407.141
409.523
411.8
413.973
416.012
417.899
419.645
421.237
422.703
424.056
425.325
426.497
427.551
428.482
429.28
429.953
430.533
430.979
431.141
431.041
430.787
430.37
429.785
428.979
427.918
426.517
424.79
422.691
420.192
417.263
413.881
409.999
405.607
400.686
395.228
389.228
382.692
375.634
368.076
360.048
351.587
342.738
333.546
324.06
314.34
304.451
294.465
284.457
274.501
264.679
255.075
245.707
236.571
227.664
218.995
210.576
202.42
194.534
186.923
179.582
172.517
165.727
159.204
152.944
146.93
141.157
135.612
130.273
125.157
120.265
115.597
111.15
106.923
102.914
99.1099
95.5178
92.131
88.9459
85.954
83.1651
80.5641
78.2104
76.0627
74.3109
73.2371
36.9379
18.9444
15.3022
14.295
14.187
14.5482
15.2248
16.1495
17.2954
18.6519
20.2143
21.9777
23.9349
26.0745
28.3812
30.8379
33.4296
36.1471
38.9882
41.9552
45.0511
48.2756
51.6262
55.098
58.6869
62.3901
66.2064
70.1342
74.1717
78.3166
82.5673
86.9229
91.3828
95.9459
100.611
105.374
110.234
115.187
120.232
125.365
130.583
135.885
141.268
146.728
152.265
157.874
163.555
169.305
175.122
181.004
186.949
192.956
199.022
205.146
211.324
217.555
223.836
230.164
236.535
242.945
249.389
255.863
262.362
268.878
275.405
281.936
288.462
294.976
301.467
307.926
314.343
320.708
327.009
333.236
339.376
345.419
351.353
357.167
362.85
368.391
373.78
379.008
384.064
388.942
393.633
398.13
402.428
406.52
410.402
414.074
417.533
420.776
423.804
426.619
429.23
431.65
433.895
435.979
437.905
439.666
441.256
442.677
443.931
445.029
445.982
446.805
447.478
448.002
448.423
448.714
448.791
448.658
448.441
448.007
447.404
446.619
445.655
444.496
443.114
441.476
439.542
437.29
434.688
431.702
428.303
424.459
420.139
415.322
409.988
404.127
397.731
390.806
383.362
375.421
367.011
358.167
348.932
339.359
329.506
319.441
309.231
298.95
288.667
278.45
268.366
258.472
248.797
239.353
230.151
221.203
212.523
204.121
196.008
188.187
180.659
173.426
166.486
159.833
153.461
147.36
141.52
135.93
130.576
125.434
120.5
115.777
111.266
106.968
102.884
99.0068
95.3426
91.8849
88.6305
85.5743
82.7203
80.0658
77.6409
75.447
73.5701
72.1462
44.1378
22.7088
18.2086
16.8812
16.6361
16.9291
17.5744
18.483
19.6153
20.9524
22.4848
24.2059
26.1085
28.1839
30.4219
32.8116
35.3433
38.0099
40.8079
43.7359
46.7941
49.9822
53.2995
56.7444
60.3158
64.0127
67.8346
71.7811
75.8517
80.0456
84.3623
88.8014
93.3622
98.0437
102.845
107.763
112.797
117.944
123.201
128.566
134.037
139.609
145.282
151.052
156.916
162.872
168.918
175.052
181.271
187.573
193.958
200.422
206.963
213.581
220.271
227.033
233.862
240.756
247.712
254.724
261.787
268.897
276.048
283.231
290.439
297.663
304.895
312.123
319.337
326.525
333.674
340.771
347.803
354.755
361.614
368.364
374.99
381.479
387.816
393.987
399.979
405.779
411.375
416.756
421.913
426.837
431.519
435.954
440.137
444.066
447.739
451.156
454.315
457.222
459.883
462.308
464.508
466.494
468.272
469.843
471.207
472.366
473.323
474.08
474.648
475.062
475.257
475.217
475.063
474.739
474.21
473.511
472.646
471.59
470.351
468.922
467.297
465.462
463.397
461.076
458.472
455.558
452.306
448.684
444.662
440.21
435.298
429.903
424.005
417.59
410.652
403.191
395.219
386.753
377.822
368.464
358.727
348.669
338.356
327.853
317.231
306.559
295.904
285.329
274.89
264.636
254.597
244.796
235.25
225.975
216.984
208.288
199.897
191.815
184.044
176.584
169.434
162.589
156.041
149.781
143.801
138.087
132.629
127.409
122.408
117.601
112.994
108.595
104.407
100.431
96.6668
93.1116
89.7629
86.6173
83.6767
80.9422
78.4313
76.1558
74.1666
72.4778
50.789
26.2612
20.9449
19.3
18.9129
19.128
19.7289
20.6064
21.7092
23.0117
24.5007
26.1678
28.0069
30.0114
32.1748
34.4904
36.9521
39.555
42.296
45.1735
48.1871
51.3366
54.622
58.0435
61.6012
65.2955
69.127
73.0961
77.2034
81.4492
85.8341
90.3579
95.0209
99.8224
104.762
109.837
115.048
120.392
125.867
131.47
137.199
143.052
149.025
155.117
161.324
167.645
174.076
180.616
187.263
194.015
200.869
207.825
214.879
222.031
229.277
236.616
244.044
251.558
259.154
266.827
274.574
282.386
290.258
298.181
306.146
314.145
322.165
330.194
338.22
346.229
354.206
362.135
369.999
377.782
385.465
393.032
400.463
407.741
414.848
421.767
428.48
434.972
441.227
447.233
452.977
458.446
463.633
468.528
473.127
477.426
481.422
485.115
488.505
491.595
494.391
496.899
499.131
501.094
502.796
504.241
505.433
506.378
507.078
507.524
507.695
507.62
507.33
506.823
506.111
505.187
504.045
502.695
501.142
499.379
497.408
495.226
492.825
490.195
487.322
484.186
480.768
477.043
472.988
468.574
463.774
458.559
452.903
446.783
440.179
433.076
425.467
417.353
408.743
399.655
390.123
380.187
369.899
359.32
348.513
337.545
326.485
315.398
304.347
293.39
282.578
271.954
261.551
251.396
241.509
231.907
222.605
213.614
204.941
196.591
188.567
180.868
173.493
166.436
159.692
153.249
147.099
141.231
135.632
130.289
125.184
120.286
115.573
111.06
106.759
102.67
98.7965
95.135
91.6838
88.4403
85.405
82.5802
79.9763
77.6055
75.5029
73.607
56.7295
29.4932
23.4233
21.4735
20.9445
21.0778
21.6279
22.4672
23.5341
24.7969
26.239
27.8508
29.6264
31.5613
33.6513
35.8927
38.282
40.8164
43.4943
46.3144
49.2768
52.3815
55.6296
59.0216
62.5591
66.2431
70.0753
74.057
78.1899
82.4752
86.9143
91.5081
96.2574
101.163
106.224
111.44
116.811
122.336
128.012
133.838
139.812
145.932
152.195
158.599
165.142
171.822
178.636
185.582
192.659
199.865
207.198
214.656
222.238
229.941
237.764
245.703
253.757
261.921
270.192
278.565
287.033
295.592
304.232
312.946
321.723
330.552
339.421
348.317
357.223
366.124
375.003
383.841
392.619
401.317
409.913
418.385
426.714
434.875
442.849
450.613
458.148
465.433
472.45
479.183
485.615
491.733
497.525
502.98
508.092
512.855
517.267
521.325
525.029
528.38
531.385
534.047
536.377
538.381
540.067
541.442
542.514
543.292
543.734
543.846
543.639
543.18
542.443
541.436
540.165
538.632
536.836
534.787
532.488
529.942
527.148
524.107
520.815
517.267
513.451
509.359
504.973
500.279
495.255
489.883
484.136
477.993
471.431
464.43
456.972
449.045
440.643
431.766
422.427
412.65
402.468
391.924
381.069
369.961
358.663
347.239
335.754
324.269
312.842
301.526
290.368
279.408
268.676
258.203
248.012
238.121
228.541
219.285
210.358
201.765
193.509
185.589
178.002
170.745
163.81
157.188
150.869
144.842
139.094
133.614
128.386
123.385
118.563
113.938
109.523
105.324
101.342
97.5754
94.0226
90.6814
87.5514
84.6345
81.9368
79.4675
77.2523
75.189
61.8407
32.3235
25.5822
23.35
22.6848
22.7375
23.2356
24.0354
25.0663
26.291
27.6899
29.2519
30.9711
32.8437
34.8672
37.0399
39.3603
41.8272
44.4404
47.1996
50.1055
53.159
56.3616
59.7149
63.221
66.882
70.7005
74.6789
78.8196
83.125
87.5976
92.2391
97.0514
102.036
107.194
112.525
118.03
123.709
129.561
135.585
141.78
148.143
154.675
161.372
168.232
175.255
182.438
189.78
197.279
204.933
212.741
220.701
228.812
237.072
245.479
254.031
262.724
271.556
280.521
289.616
298.833
308.167
317.608
327.147
336.774
346.475
356.238
366.045
375.882
385.729
395.566
405.372
415.126
424.802
434.377
443.826
453.123
462.242
471.158
479.846
488.28
496.439
504.298
511.839
519.041
525.888
532.366
538.461
544.163
549.468
554.368
558.862
562.948
566.626
569.901
572.777
575.26
577.359
579.079
580.431
581.425
582.03
582.241
582.076
581.574
580.734
579.557
578.049
576.213
574.053
571.574
568.782
565.683
562.28
558.579
554.581
550.286
545.695
540.803
535.605
530.094
524.263
518.098
511.588
504.715
497.466
489.826
481.779
473.314
464.423
455.106
445.368
435.226
424.705
413.841
402.674
391.25
379.625
367.86
356.013
344.143
332.307
320.556
308.938
297.494
286.259
275.263
264.537
254.107
243.988
234.191
224.726
215.598
206.811
198.366
190.263
182.501
175.075
167.977
161.199
154.73
148.559
142.675
137.065
131.715
126.602
121.676
116.946
112.428
108.128
104.048
100.186
96.5398
93.1079
89.8891
86.8845
84.0971
81.5328
79.2098
77.0076
66.0522
34.7012
27.3865
24.9038
24.1127
24.0923
24.5377
25.3
26.2986
27.4912
28.8549
30.377
32.0508
33.8727
35.8411
37.9551
40.2147
42.6199
45.1715
47.8705
50.7182
53.7164
56.8675
60.1739
63.6386
67.2648
71.0559
75.0154
79.1468
83.4534
87.9388
92.606
97.458
102.497
107.726
113.147
118.76
124.567
130.569
136.765
143.156
149.74
156.517
163.487
170.646
177.996
185.533
193.258
201.168
209.263
217.54
226
234.641
243.46
252.456
261.627
270.969
280.48
290.154
299.987
309.971
320.1
330.365
340.754
351.256
361.858
372.544
383.297
394.097
404.926
415.759
426.573
437.343
448.042
458.641
469.112
479.425
489.551
499.46
509.122
518.509
527.594
536.35
544.752
552.779
560.409
567.626
574.414
580.76
586.656
592.095
597.073
601.587
605.637
609.225
612.356
615.034
617.265
619.057
620.417
621.346
621.816
621.848
621.46
620.66
619.453
617.843
615.83
613.422
610.619
607.427
603.852
599.899
595.575
590.886
585.837
580.434
574.677
568.574
562.123
555.329
548.19
540.708
532.876
524.694
516.154
507.255
497.992
488.365
478.374
468.028
457.337
446.321
435.008
423.439
411.641
399.66
387.546
375.353
363.135
350.943
338.825
326.827
314.988
303.345
291.924
280.748
269.858
259.276
249.014
239.082
229.485
220.229
211.314
202.744
194.516
186.63
179.084
171.868
164.973
158.389
152.105
146.11
140.392
134.936
129.719
124.696
119.877
115.274
110.892
106.73
102.788
99.0634
95.5534
92.2569
89.174
86.3054
83.6541
81.2323
78.9152
69.3328
36.5988
28.8187
26.1225
25.2165
25.1323
25.5342
26.2653
27.2387
28.4078
29.7469
31.2415
32.8839
34.67
36.598
38.6676
40.8792
43.2338
45.7328
48.3782
51.1722
54.1174
57.2172
60.4751
63.895
67.4813
71.2386
75.1711
79.2836
83.5803
88.0659
92.7447
97.621
102.699
107.982
113.474
119.177
125.095
131.229
137.582
144.153
150.944
157.956
165.187
172.637
180.306
188.194
196.298
204.619
213.156
221.907
230.872
240.048
249.436
259.032
268.833
278.838
289.042
299.44
310.026
320.794
331.736
342.841
354.097
365.493
377.014
388.641
400.356
412.139
423.967
435.814
447.655
459.459
471.198
482.839
494.351
505.699
516.849
527.769
538.424
548.782
558.811
568.482
577.765
586.635
595.068
603.043
610.542
617.549
624.056
630.052
635.531
640.49
644.928
648.846
652.247
655.135
657.515
659.392
660.772
661.652
662.025
661.902
661.287
660.19
658.616
656.566
654.041
651.043
647.574
643.637
639.237
634.379
629.07
623.316
617.127
610.509
603.472
596.025
588.178
579.943
571.33
562.351
553.015
543.335
533.321
522.986
512.343
501.403
490.182
478.699
466.966
455.009
442.861
430.545
418.092
405.556
392.984
380.419
367.904
355.479
343.182
331.048
319.106
307.384
295.9
284.66
273.715
263.09
252.791
242.823
233.189
223.894
214.937
206.318
198.037
190.096
182.492
175.215
168.256
161.604
155.249
149.18
143.386
137.852
132.55
127.453
122.569
117.906
113.465
109.245
105.245
101.46
97.8899
94.5312
91.3837
88.4463
85.72
83.2118
80.802
71.6823
38.0101
29.8808
27.0147
26.0137
25.8767
26.2442
26.9525
27.9098
29.0663
30.3937
31.8758
33.5035
35.2718
37.1785
39.2229
41.4056
43.7278
46.1915
48.7991
51.5539
54.4593
57.5197
60.7397
64.1245
67.6798
71.4124
75.3263
79.4267
83.719
88.2089
92.9021
97.8044
102.922
108.259
113.823
119.617
125.646
131.915
138.427
145.186
152.192
159.447
166.952
174.707
182.711
190.966
199.47
208.223
217.223
226.471
235.965
245.703
255.684
265.905
276.364
287.056
297.977
309.122
320.485
332.056
343.828
355.79
367.928
380.228
392.675
405.249
417.929
430.694
443.518
456.373
469.231
482.058
494.824
507.491
520.024
532.387
544.54
556.447
568.07
579.373
590.32
600.878
611.015
620.701
629.909
638.616
646.8
654.444
661.535
668.064
674.021
679.403
684.207
688.434
692.087
695.168
697.681
699.63
701.021
701.852
702.12
701.829
700.962
699.549
697.588
695.075
692.011
688.391
684.218
679.491
674.213
668.387
662.021
655.121
647.697
639.759
631.323
622.4
613.013
603.18
592.928
582.278
571.259
559.904
548.242
536.304
524.13
511.737
499.143
486.325
473.383
460.361
447.307
434.279
421.287
408.315
395.4
382.576
369.876
357.328
344.961
332.797
320.859
309.164
297.724
286.509
275.648
265.119
254.916
245.04
235.492
226.272
217.381
208.815
200.563
192.646
185.058
177.79
170.83
164.167
157.793
151.696
145.868
140.29
134.936
129.801
124.888
120.196
115.727
111.477
107.444
103.623
100.014
96.6123
93.4177
90.4274
87.6413
85.0621
82.581
73.13
38.9463
30.5885
27.6025
26.5318
26.3566
26.7021
27.3993
28.3531
29.5113
30.8439
32.3329
33.9678
35.7425
37.6539
39.7008
41.8833
44.2026
46.6609
49.2611
52.007
54.9031
57.9547
61.1683
64.5493
68.1031
71.8364
75.7556
79.8681
84.1811
88.702
93.4384
98.3978
103.588
109.016
114.69
120.616
126.8
133.248
139.964
146.952
154.217
161.762
169.59
177.7
186.094
194.77
203.729
212.97
222.492
232.293
242.372
252.728
263.356
274.254
285.418
296.843
308.524
320.453
332.624
345.026
357.65
370.483
383.51
396.717
410.085
423.594
437.221
450.942
464.729
478.553
492.382
506.182
519.916
533.547
547.034
560.339
573.419
586.233
598.742
610.905
622.684
634.042
644.944
655.358
665.255
674.608
683.393
691.59
699.186
706.168
712.527
718.258
723.358
727.826
731.666
734.879
737.467
739.434
740.787
741.528
741.64
741.123
739.957
738.18
735.78
732.753
729.092
724.792
719.85
714.262
708.029
701.153
693.638
685.492
676.726
667.351
657.386
646.853
635.78
624.199
612.149
599.668
586.8
573.614
560.147
546.409
532.425
518.328
504.195
490.185
476.209
462.294
448.494
434.89
421.342
407.941
394.72
381.703
368.905
356.341
344.024
331.963
320.168
308.645
297.395
286.373
275.696
265.346
255.317
245.61
236.224
227.156
218.405
209.968
201.836
194.038
186.558
179.381
172.497
165.894
159.564
153.492
147.677
142.096
136.746
131.622
126.719
122.038
117.576
113.328
109.292
105.463
101.839
98.4176
95.1965
92.1725
89.3446
86.712
84.1811
73.7029
39.4247
30.9663
27.9177
26.8096
26.6174
26.9597
27.6642
28.6345
29.8171
31.1805
32.7056
34.3805
36.198
38.1541
40.2466
42.4752
44.8407
47.3453
49.9921
52.7856
55.7311
58.8333
62.0972
65.5303
69.1401
72.9348
76.9227
81.1131
85.5152
90.1386
94.9929
100.088
105.433
111.039
116.912
123.063
129.499
136.226
143.251
150.579
158.214
166.159
174.419
182.996
191.89
201.1
210.625
220.464
230.614
241.075
251.841
262.911
274.28
285.942
297.891
310.121
322.625
335.392
348.414
361.68
375.176
388.888
402.802
416.898
431.158
445.56
460.079
474.689
489.361
504.064
518.763
533.423
548.005
562.468
576.772
590.872
604.726
618.29
631.521
644.379
656.822
668.811
680.31
691.285
701.704
711.539
720.764
729.359
737.307
744.594
751.211
757.151
762.411
766.992
770.894
774.119
776.668
778.546
779.758
780.299
780.165
779.32
777.767
775.532
772.6
768.962
764.607
759.527
753.712
747.158
739.861
731.821
723.039
713.524
703.286
692.341
680.709
668.423
655.515
642.04
628.047
613.59
598.67
583.346
567.772
552.115
536.537
521.001
505.651
490.312
475.144
460.21
445.553
431.207
417.157
403.421
390.011
376.93
364.178
351.752
339.646
327.852
316.366
305.182
294.291
283.68
273.374
263.376
253.685
244.3
235.217
226.434
217.948
209.753
201.825
194.214
186.9
179.872
173.118
166.628
160.395
154.403
148.657
143.149
137.871
132.814
127.971
123.343
118.927
114.718
110.712
106.905
103.294
99.878
96.6536
93.6173
90.768
88.1015
85.5428
73.5641
39.5093
31.0731
28.0238
26.9148
26.7349
27.105
27.8505
28.8747
30.1239
31.566
33.1805
34.9547
36.8804
38.9526
41.1687
43.5275
46.0295
48.6763
51.4706
54.4162
57.5176
60.781
64.2134
67.8227
71.618
75.6089
79.8059
84.2202
88.8631
93.7463
98.8816
104.281
109.956
115.918
122.178
128.746
135.629
142.837
150.377
158.254
166.472
175.035
183.942
193.2
202.808
212.762
223.062
233.702
244.68
255.99
267.627
279.583
291.853
304.426
317.295
330.448
343.874
357.562
371.498
385.668
400.058
414.65
429.428
444.371
459.458
474.666
489.971
505.343
520.754
536.172
551.56
566.884
582.102
597.173
612.055
626.704
641.075
655.125
668.81
682.089
694.92
707.265
719.085
730.347
741.019
751.07
760.477
769.215
777.267
784.619
791.26
797.181
802.381
806.86
810.617
813.654
815.972
817.573
818.471
818.628
818.076
816.72
814.617
811.756
808.123
803.701
798.479
792.441
785.576
777.874
769.329
759.938
749.7
738.623
726.719
714.005
700.515
686.282
671.342
655.677
639.371
622.564
605.482
588.245
570.875
553.578
536.178
518.906
501.883
485.157
468.81
452.904
437.478
422.555
408.133
394.208
380.769
367.799
355.276
343.175
331.47
320.135
309.149
298.489
288.14
278.082
268.317
258.84
249.649
240.74
232.107
223.746
215.654
207.828
200.259
192.956
185.919
179.137
172.602
166.305
160.237
154.389
148.781
143.403
138.245
133.301
128.56
124.033
119.709
115.58
111.641
107.889
104.321
100.938
97.735
94.7096
91.8606
89.1809
86.6161
72.9355
39.343
31.0033
28.0102
26.9593
26.8525
27.3136
28.1683
29.3215
30.7198
32.331
34.1351
36.1192
38.2747
40.5959
43.0796
45.7242
48.5297
51.4972
54.6293
57.9298
61.4036
65.0571
68.898
72.9351
77.1782
81.6382
86.3269
91.2568
96.4409
101.893
107.625
113.653
119.989
126.647
133.637
140.969
148.652
156.695
165.106
173.887
183.041
192.57
202.471
212.741
223.379
234.38
245.74
257.451
269.506
281.894
294.607
307.632
320.956
334.568
348.451
362.591
376.972
391.579
406.393
421.398
436.576
451.91
467.378
482.961
498.638
514.385
530.178
545.989
561.79
577.55
593.236
608.812
624.24
639.479
654.489
669.227
683.65
697.717
711.387
724.618
737.374
749.615
761.307
772.416
782.91
792.763
801.948
810.442
818.226
825.284
831.603
837.177
842
846.073
849.396
851.969
853.788
854.858
855.179
854.765
853.522
851.46
848.589
844.889
840.343
834.929
828.632
821.43
813.311
804.259
794.266
783.325
771.436
758.607
744.854
730.186
714.577
698.076
680.789
662.913
644.555
625.758
606.749
587.379
567.903
548.487
529.224
510.261
491.732
473.733
456.349
439.64
423.639
408.358
393.783
379.892
366.651
354.019
341.95
330.396
319.309
308.643
298.359
288.42
278.796
269.463
260.406
251.615
243.081
234.797
226.756
218.952
211.383
204.045
196.932
190.045
183.387
176.945
170.717
164.704
158.905
153.315
147.937
142.769
137.805
133.037
128.457
124.071
119.872
115.855
112.015
108.348
104.857
101.537
98.3853
95.3976
92.5743
89.905
87.3578
71.5847
38.8363
30.7676
27.9516
27.0598
27.1089
27.7533
28.82
30.2181
31.8963
33.8237
35.9811
38.356
40.9399
43.7275
46.7152
49.9015
53.2857
56.8685
60.6521
64.6403
68.8375
73.2497
77.884
82.7487
87.8532
93.2085
98.8257
104.717
110.896
117.376
124.169
131.292
138.76
146.587
154.777
163.337
172.271
181.584
191.275
201.349
211.807
222.646
233.862
245.448
257.395
269.695
282.335
295.302
308.581
322.16
336.02
350.146
364.52
379.121
393.93
408.927
424.091
439.403
454.844
470.393
486.032
501.743
517.506
533.304
549.115
564.92
580.696
596.42
612.069
627.614
643.027
658.278
673.33
688.149
702.697
716.937
730.829
744.338
757.426
770.057
782.197
793.81
804.866
815.332
825.18
834.383
842.917
850.759
857.889
864.287
869.94
874.838
878.975
882.351
884.963
886.813
887.886
888.194
887.768
886.509
884.401
881.445
877.621
872.907
867.278
860.711
853.182
844.668
835.151
824.611
813.041
800.432
786.774
772.026
756.211
739.384