/*--------------------------------*- C++ -*----------------------------------*\
  =========                 |
  \\      /  F ield         | OpenFOAM: The Open Source CFD Toolbox
   \\    /   O peration     | Website:  https://openfoam.org
    \\  /    A nd           | Version:  6
     \\/     M anipulation  |
\*---------------------------------------------------------------------------*/
FoamFile
{
    version     2.0;
    format      ascii;
    class       volScalarField;
    location    "100";
    object      k;
}
// * * * * * * * * * * * * * * * * * * * * * * * * * * * * * * * * * * * * * //

dimensions      [0 2 -2 0 0 0 0];

internalField   nonuniform List<scalar> 
12225
(
0.362814
0.344001
0.327732
0.309838
0.295373
0.283524
0.275462
0.270313
0.270357
0.271935
0.276091
0.28083
0.290007
0.295965
0.307107
0.31329
0.326947
0.32402
0.440192
0.468696
0.461605
0.448377
0.450365
0.45834
0.474462
0.498846
0.524371
0.552605
0.580943
0.606925
0.634508
0.655108
0.681387
0.695248
0.723945
0.72836
0.390545
0.417868
0.42023
0.416824
0.411632
0.407808
0.408017
0.410058
0.414545
0.421523
0.43082
0.439911
0.451495
0.461562
0.473568
0.484622
0.495289
0.509471
0.377546
0.38698
0.391407
0.391342
0.390222
0.387897
0.385663
0.384085
0.382885
0.38291
0.383383
0.38443
0.386378
0.388583
0.391147
0.394624
0.397192
0.402222
0.374562
0.376089
0.378413
0.378665
0.378263
0.377204
0.375489
0.373736
0.372011
0.370453
0.369261
0.368117
0.367399
0.366853
0.366491
0.366492
0.36657
0.367095
0.373815
0.372709
0.372645
0.372383
0.371761
0.370814
0.369553
0.368079
0.366569
0.364972
0.363523
0.36206
0.360748
0.359537
0.358399
0.357461
0.356494
0.355903
0.373783
0.371742
0.370386
0.369286
0.368234
0.367112
0.365913
0.364583
0.363234
0.361802
0.360414
0.359015
0.357665
0.356372
0.355106
0.353959
0.352792
0.351824
0.37382
0.37156
0.369635
0.367976
0.3665
0.365106
0.363774
0.362426
0.361103
0.35976
0.358441
0.357133
0.355849
0.354606
0.353381
0.35223
0.35108
0.350042
0.373832
0.371553
0.369449
0.367525
0.365776
0.364152
0.362643
0.361196
0.359813
0.358467
0.357161
0.355892
0.354653
0.353458
0.352288
0.351174
0.350076
0.349055
0.373831
0.37156
0.369418
0.367405
0.365529
0.363772
0.362131
0.360583
0.359118
0.357722
0.356387
0.355108
0.353876
0.352695
0.351552
0.350463
0.349401
0.348404
0.373829
0.371561
0.369413
0.367378
0.365458
0.363645
0.361936
0.360322
0.358795
0.357348
0.355973
0.354664
0.353415
0.352224
0.351081
0.349994
0.348945
0.347957
0.373828
0.371559
0.369409
0.367371
0.365439
0.363608
0.361875
0.360232
0.358675
0.357198
0.355795
0.354462
0.353193
0.351986
0.350833
0.349737
0.348686
0.347693
0.373827
0.371557
0.369405
0.367365
0.36543
0.363593
0.36185
0.360196
0.358624
0.357132
0.355712
0.354364
0.35308
0.351859
0.350694
0.349588
0.34853
0.347528
0.373827
0.371555
0.369402
0.36736
0.365423
0.363583
0.361837
0.360177
0.3586
0.3571
0.355673
0.354315
0.353022
0.351792
0.35062
0.349504
0.348439
0.347428
0.373826
0.371553
0.369399
0.367355
0.365416
0.363575
0.361826
0.360165
0.358585
0.357081
0.355651
0.354289
0.352993
0.351758
0.350581
0.34946
0.348391
0.347373
0.373826
0.371552
0.369396
0.367351
0.36541
0.363568
0.361818
0.360154
0.358572
0.357068
0.355635
0.354272
0.352973
0.351737
0.350557
0.349434
0.348362
0.347341
0.373825
0.371551
0.369394
0.367348
0.365406
0.363562
0.361811
0.360146
0.358563
0.357057
0.355623
0.354258
0.352959
0.35172
0.35054
0.349414
0.348341
0.347317
0.373825
0.371551
0.369393
0.367346
0.365404
0.363559
0.361806
0.36014
0.358556
0.357049
0.355614
0.354248
0.352947
0.351707
0.350526
0.349399
0.348324
0.347299
0.373825
0.37155
0.369393
0.367346
0.365403
0.363557
0.361804
0.360138
0.358553
0.357045
0.35561
0.354243
0.352942
0.351701
0.350519
0.349391
0.348316
0.347289
0.373825
0.371551
0.369394
0.367346
0.365404
0.363559
0.361807
0.36014
0.358556
0.357048
0.355614
0.354247
0.352946
0.351704
0.350523
0.349394
0.348319
0.347293
0.373825
0.371552
0.369395
0.367349
0.365407
0.363564
0.361811
0.360147
0.358563
0.357057
0.355623
0.354259
0.352958
0.35172
0.350539
0.349413
0.34834
0.347316
0.373826
0.371553
0.369397
0.367352
0.365413
0.363571
0.361823
0.360162
0.358585
0.357085
0.355659
0.354301
0.35301
0.351779
0.350607
0.349489
0.348424
0.347406
0.373826
0.371554
0.369399
0.36736
0.365429
0.363603
0.361876
0.360241
0.358692
0.357222
0.355826
0.354496
0.353231
0.352023
0.350871
0.349768
0.348718
0.347708
0.373828
0.371551
0.369412
0.367417
0.365556
0.36382
0.36219
0.360652
0.359191
0.357796
0.356459
0.355175
0.35394
0.35275
0.351606
0.350501
0.349443
0.348418
0.373823
0.371554
0.369605
0.367893
0.36634
0.364893
0.363496
0.362123
0.360763
0.359416
0.358083
0.356773
0.355492
0.354242
0.353034
0.351861
0.35074
0.349653
0.373788
0.371991
0.371113
0.370266
0.369361
0.368312
0.367049
0.365631
0.364122
0.362577
0.361032
0.359525
0.358076
0.356685
0.355385
0.354145
0.353014
0.351928
0.374355
0.375572
0.377776
0.377858
0.377288
0.375886
0.373836
0.371642
0.369506
0.367483
0.365664
0.364083
0.36271
0.361533
0.360608
0.359814
0.359285
0.358793
0.379125
0.394297
0.39825
0.396574
0.392539
0.387604
0.383646
0.380448
0.378266
0.376849
0.37649
0.376732
0.377403
0.378672
0.380416
0.38239
0.384785
0.387086
0.408394
0.42754
0.422415
0.411054
0.402225
0.397919
0.398619
0.400952
0.406049
0.413026
0.420956
0.429773
0.438762
0.4481
0.457194
0.466418
0.47516
0.483994
0.36605
0.353415
0.341989
0.330209
0.318983
0.30838
0.299412
0.29167
0.285403
0.28033
0.276677
0.273857
0.272298
0.271154
0.271183
0.271437
0.272144
0.273325
0.0121224
0.0350518
0.052403
0.0677456
0.0816604
0.0944554
0.106329
0.117078
0.126338
0.133536
0.137951
0.138727
0.133305
0.126768
0.116281
0.0882336
0.0905194
0.0990302
0.110383
0.120857
0.139659
0.151338
0.168232
0.182236
0.197485
0.213583
0.230568
0.248242
0.26657
0.285354
0.304563
0.324012
0.343686
0.363418
0.383212
0.402923
0.422583
0.442066
0.461423
0.480547
0.499502
0.518196
0.536705
0.554949
0.573007
0.590802
0.608413
0.625772
0.642951
0.659888
0.676652
0.693183
0.709543
0.725677
0.741636
0.757371
0.772926
0.788255
0.803394
0.818304
0.833012
0.847487
0.861744
0.875763
0.889546
0.903089
0.916379
0.929425
0.942202
0.954731
0.966976
0.978979
0.990691
1.00218
1.01339
1.0244
1.03514
1.04571
1.05605
1.06628
1.07629
1.08625
1.09605
1.10585
1.11552
1.12526
1.13491
1.14468
1.15445
1.16436
1.17436
1.18433
1.19418
1.2036
1.21205
1.21822
1.21764
1.2265
1.24739
1.24934
1.26963
1.27343
1.28938
1.28896
1.31008
1.31197
1.32252
1.32924
1.32769
1.33408
1.34046
1.3558
1.35369
1.35841
1.37183
1.37126
1.3728
1.3695
1.3704
1.37203
1.3761
1.37084
1.36705
1.36029
1.35264
1.34349
1.33298
1.32111
1.30777
1.29296
1.27667
1.25899
1.23993
1.21962
1.19807
1.17512
1.15109
1.12607
1.10019
1.07364
1.0465
1.01877
0.99092
0.963399
0.934816
0.90895
0.889826
0.872003
0.854297
0.836615
0.819037
0.801602
0.784413
0.767424
0.750458
0.733665
0.717498
0.701761
0.686202
0.670944
0.656113
0.641807
0.628037
0.614748
0.601954
0.589669
0.577888
0.566593
0.555786
0.545441
0.535549
0.526052
0.516981
0.508094
0.499795
0.49085
0.483462
0.472687
0.464711
0.438534
0.0273474
0.0634149
0.0877157
0.106247
0.122083
0.136269
0.149211
0.161137
0.172095
0.182005
0.190865
0.199118
0.208481
0.217492
0.225759
0.234009
0.247607
0.264758
0.284483
0.306809
0.332654
0.36012
0.387579
0.414597
0.442698
0.472061
0.502627
0.534273
0.566872
0.600276
0.634371
0.669019
0.704115
0.739527
0.775162
0.81091
0.846707
0.882462
0.918134
0.953654
0.989002
1.02413
1.05903
1.09367
1.12806
1.16217
1.19601
1.22957
1.26285
1.29585
1.32857
1.361
1.39315
1.42501
1.45656
1.48781
1.51874
1.54933
1.57959
1.60948
1.63899
1.66811
1.69681
1.72507
1.75287
1.7802
1.80702
1.83333
1.8591
1.88434
1.90901
1.93307
1.95651
1.97931
2.00148
2.02302
2.04392
2.06421
2.0839
2.10302
2.12158
2.13965
2.15723
2.17439
2.19116
2.2076
2.22374
2.23968
2.25544
2.27115
2.28684
2.30248
2.31807
2.33356
2.3489
2.36405
2.37916
2.39563
2.41229
2.42753
2.44516
2.46074
2.47778
2.49321
2.51041
2.52503
2.53974
2.55336
2.56607
2.58013
2.59403
2.60756
2.61901
2.63163
2.64352
2.65304
2.66084
2.66414
2.67604
2.67775
2.68499
2.68454
2.68668
2.68395
2.67914
2.67185
2.66202
2.64958
2.63455
2.61645
2.59526
2.571
2.54369
2.5134
2.48023
2.44429
2.40583
2.36507
2.32223
2.27755
2.23128
2.18364
2.1348
2.08534
2.0354
1.98479
1.93452
1.88436
1.83438
1.78482
1.73591
1.68783
1.6407
1.59438
1.54837
1.50341
1.45983
1.41773
1.37686
1.33709
1.29868
1.26175
1.22628
1.19212
1.15932
1.1279
1.09782
1.06904
1.04155
1.01528
0.990208
0.966256
0.943379
0.92145
0.900557
0.880133
0.86142
0.840879
0.825859
0.785533
0.0493436
0.0969023
0.126121
0.148152
0.166972
0.184024
0.200026
0.21543
0.230579
0.245793
0.261463
0.278094
0.296128
0.3152
0.335319
0.356837
0.380394
0.405859
0.433095
0.462161
0.493181
0.525926
0.560264
0.595791
0.63253
0.670524
0.70972
0.74999
0.791204
0.833237
0.875972
0.919285
0.963062
1.00718
1.05154
1.09605
1.14062
1.18518
1.22967
1.27406
1.31829
1.36234
1.40619
1.44981
1.49319
1.53632
1.5792
1.62181
1.66415
1.70622
1.74802
1.78954
1.83077
1.87171
1.91235
1.95267
1.99267
2.03232
2.07162
2.11054
2.14906
2.18715
2.2248
2.26196
2.29862
2.33474
2.3703
2.40525
2.43958
2.47325
2.50623
2.53849
2.57
2.60075
2.63072
2.65988
2.68823
2.71577
2.74249
2.76841
2.79352
2.81785
2.84143
2.86427
2.8864
2.90786
2.92869
2.94892
2.96862
2.98784
3.00663
3.02499
3.04291
3.0604
3.07747
3.09417
3.11059
3.12695
3.14304
3.15896
3.17511
3.19059
3.20623
3.22128
3.23639
3.25071
3.26482
3.27856
3.29192
3.30563
3.31888
3.33156
3.34363
3.35539
3.36623
3.37592
3.38414
3.39085
3.39824
3.40124
3.40328
3.40262
3.40102
3.3963
3.38876
3.37819
3.36442
3.34726
3.32658
3.30219
3.27402
3.24205
3.20632
3.16692
3.12397
3.07766
3.02823
2.97592
2.92102
2.8638
2.80452
2.74346
2.6809
2.61739
2.55359
2.48968
2.42598
2.36251
2.2994
2.23691
2.17526
2.11466
2.05527
1.99712
1.94018
1.88469
1.83079
1.77861
1.72788
1.67826
1.63025
1.58403
1.53957
1.49661
1.45527
1.41564
1.37762
1.34119
1.30633
1.273
1.24114
1.2107
1.18161
1.15379
1.12726
1.10173
1.07792
1.05383
1.03588
1.00335
0.0742501
0.13193
0.166361
0.192323
0.21449
0.23466
0.253785
0.272492
0.291269
0.310537
0.330688
0.352078
0.374954
0.399339
0.425238
0.452687
0.481745
0.512404
0.544701
0.578739
0.614632
0.652393
0.691912
0.732971
0.775438
0.819215
0.864196
0.910272
0.957343
1.00529
1.054
1.10336
1.15324
1.20354
1.25415
1.30498
1.35597
1.40703
1.45812
1.50918
1.56018
1.61106
1.66182
1.71242
1.76284
1.81307
1.8631
1.91292
1.96251
2.01187
2.061
2.10988
2.1585
2.20687
2.25496
2.30276
2.35026
2.39744
2.44428
2.49075
2.53684
2.5825
2.62772
2.67244
2.71665
2.7603
2.80334
2.84574
2.88746
2.92845
2.96867
3.00808
3.04663
3.0843
3.12104
3.15683
3.19162
3.22541
3.25817
3.28989
3.32055
3.35017
3.37873
3.40626
3.43276
3.45826
3.48277
3.50633
3.52898
3.55077
3.57174
3.59189
3.61125
3.62984
3.64769
3.66487
3.68144
3.6975
3.71309
3.72828
3.74309
3.75737
3.77131
3.78475
3.79783
3.81041
3.82261
3.83442
3.84584
3.85708
3.86785
3.87808
3.88769
3.89664
3.90478
3.91191
3.91777
3.92209
3.92462
3.92481
3.92378
3.9206
3.91523
3.90698
3.89567
3.88106
3.86292
3.84104
3.81525
3.78537
3.75133
3.7131
3.67071
3.62423
3.57382
3.51967
3.46203
3.40117
3.33738
3.27094
3.2022
3.13158
3.05952
2.98658
2.91331
2.84001
2.76694
2.69424
2.6221
2.55074
2.48042
2.41135
2.34367
2.27749
2.2129
2.15002
2.08894
2.02976
1.9724
1.91676
1.86297
1.81112
1.76118
1.71265
1.6659
1.62103
1.57789
1.53647
1.4968
1.4588
1.42244
1.38767
1.35443
1.32267
1.29239
1.26347
1.23633
1.21
1.18894
1.1594
0.100259
0.166776
0.206804
0.236966
0.262621
0.2859
0.307945
0.329505
0.351149
0.37334
0.396473
0.420873
0.446779
0.474316
0.503536
0.534446
0.567047
0.601346
0.637385
0.67523
0.714935
0.756496
0.799837
0.844828
0.891347
0.939278
0.988515
1.03895
1.09047
1.14295
1.1963
1.25038
1.30509
1.36032
1.416
1.47202
1.52833
1.58484
1.6415
1.69826
1.75506
1.81188
1.86866
1.92539
1.98203
2.03857
2.09499
2.15127
2.2074
2.26337
2.31916
2.37477
2.43019
2.48539
2.54038
2.59513
2.64963
2.70385
2.75777
2.81137
2.86462
2.91747
2.9699
3.02186
3.0733
3.12418
3.17445
3.22406
3.27294
3.32105
3.36832
3.4147
3.46012
3.50454
3.5479
3.59014
3.63121
3.67108
3.70969
3.74702
3.78304
3.81773
3.85106
3.88303
3.91364
3.9429
3.97081
3.99739
4.02267
4.04669
4.0695
4.0911
4.11154
4.13084
4.14906
4.16625
4.18249
4.19787
4.21244
4.22626
4.23934
4.25168
4.26334
4.27434
4.28471
4.29448
4.30364
4.31222
4.32025
4.32783
4.33488
4.34134
4.34696
4.3517
4.35572
4.35878
4.36008
4.35969
4.35801
4.35463
4.34949
4.34221
4.33248
4.31993
4.30426
4.28521
4.26251
4.23592
4.20524
4.1703
4.131
4.08728
4.03916
3.98672
3.9301
3.86949
3.80513
3.7373
3.66631
3.59254
3.51642
3.43844
3.35908
3.27887
3.19831
3.11775
3.03744
2.95762
2.87849
2.8003
2.72329
2.64767
2.57361
2.50124
2.43068
2.36203
2.29537
2.23076
2.1682
2.10763
2.0491
1.99266
1.93829
1.88581
1.83528
1.78675
1.73996
1.69491
1.65172
1.61027
1.57054
1.53251
1.49612
1.46136
1.42823
1.39671
1.36706
1.33892
1.31523
1.28495
0.125891
0.200443
0.245955
0.2803
0.309392
0.335647
0.360363
0.384387
0.408349
0.432752
0.458016
0.484482
0.512413
0.541987
0.57331
0.606434
0.641384
0.678178
0.716841
0.757397
0.799857
0.844199
0.890362
0.938253
0.987772
1.03881
1.09126
1.14501
1.19996
1.25599
1.313
1.37088
1.42953
1.48886
1.54879
1.60922
1.67008
1.73131
1.79284
1.85461
1.91657
1.97868
2.04088
2.10316
2.16547
2.22779
2.29009
2.35236
2.41457
2.47672
2.53878
2.60075
2.6626
2.72433
2.78592
2.84735
2.9086
2.96964
3.03046
3.09102
3.15129
3.21122
3.27077
3.3299
3.38854
3.44665
3.50416
3.56099
3.6171
3.67239
3.72679
3.78024
3.83264
3.88393
3.93403
3.98286
4.03035
4.07642
4.12103
4.16411
4.2056
4.24547
4.28367
4.32018
4.35498
4.38805
4.4194
4.44903
4.47695
4.5032
4.52782
4.55083
4.57226
4.59216
4.61057
4.62758
4.64325
4.65766
4.67087
4.68295
4.69392
4.70383
4.7127
4.7206
4.7276
4.73376
4.73901
4.74339
4.74702
4.74994
4.7522
4.75386
4.75434
4.75351
4.75197
4.74939
4.74539
4.74002
4.73322
4.72477
4.71449
4.70209
4.68728
4.66972
4.64911
4.62517
4.5976
4.56616
4.53062
4.49078
4.44652
4.39777
4.34452
4.28682
4.2248
4.15863
4.08857
4.01492
3.93804
3.85838
3.77641
3.69262
3.60751
3.52158
3.43528
3.34898
3.26298
3.17753
3.09288
3.00928
2.92697
2.84615
2.76702
2.68971
2.61436
2.54106
2.4699
2.40092
2.33413
2.26953
2.20712
2.14691
2.08889
2.03297
1.97916
1.92747
1.87779
1.83006
1.78428
1.74022
1.69791
1.65736
1.61852
1.58139
1.54601
1.51239
1.48076
1.45102
1.42508
1.39444
0.150329
0.231894
0.282513
0.320828
0.353187
0.382238
0.409404
0.43561
0.461535
0.487721
0.514617
0.542594
0.571949
0.602905
0.635619
0.67019
0.706681
0.745124
0.785541
0.827937
0.872303
0.918603
0.966783
1.01677
1.06846
1.12177
1.1766
1.23285
1.29042
1.3492
1.40909
1.47001
1.53186
1.59455
1.658
1.72213
1.78687
1.85213
1.91787
1.98402
2.05052
2.11732
2.18438
2.25165
2.3191
2.38669
2.45441
2.52221
2.59008
2.65801
2.72597
2.79394
2.86192
2.92988
2.99781
3.06569
3.13349
3.20119
3.26876
3.33616
3.40336
3.47031
3.53696
3.60325
3.66912
3.7345
3.79932
3.8635
3.92695
3.98958
4.05129
4.112
4.1716
4.23
4.28708
4.34276
4.39693
4.4495
4.50038
4.54948
4.59674
4.64207
4.68542
4.72674
4.76599
4.80313
4.83815
4.87104
4.90181
4.93047
4.95705
4.98159
5.00411
5.02466
5.04329
5.06008
5.0751
5.08842
5.10011
5.11024
5.11885
5.12602
5.13173
5.13608
5.1392
5.14125
5.14195
5.14134
5.13978
5.13724
5.13375
5.12927
5.1236
5.1168
5.10896
5.09997
5.0897
5.0781
5.06507
5.05044
5.03404
5.01561
4.99489
4.97158
4.94538
4.91601
4.88317
4.84659
4.80604
4.76129
4.71219
4.65864
4.60061
4.53813
4.4713
4.4003
4.32541
4.24696
4.16535
4.08103
3.99446
3.90614
3.81655
3.72617
3.63542
3.54467
3.45425
3.36443
3.27548
3.18765
3.10118
3.01629
2.93315
2.85193
2.77276
2.69575
2.62097
2.54847
2.47827
2.41037
2.34478
2.28149
2.22048
2.1617
2.10512
2.05076
1.99855
1.94843
1.90038
1.85424
1.81
1.76754
1.72679
1.68781
1.65063
1.61533
1.58205
1.5509
1.52305
1.49191
0.172887
0.260353
0.315523
0.357449
0.392813
0.424445
0.453861
0.482043
0.509709
0.53743
0.56568
0.594858
0.625293
0.657244
0.690912
0.726436
0.763911
0.803392
0.84491
0.888467
0.934048
0.981618
1.03112
1.0825
1.13566
1.19053
1.24702
1.30503
1.36448
1.42528
1.48734
1.55057
1.61489
1.68022
1.74648
1.8136
1.88151
1.95012
2.01939
2.08925
2.15964
2.23051
2.3018
2.37347
2.44549
2.51781
2.5904
2.66324
2.7363
2.80956
2.88299
2.95659
3.03033
3.10419
3.17816
3.25221
3.32631
3.40045
3.47459
3.54869
3.6227
3.69658
3.77027
3.8437
3.91681
3.9895
4.0617
4.13332
4.20424
4.27437
4.34358
4.41177
4.4788
4.54456
4.60892
4.67174
4.73292
4.79231
4.84982
4.90531
4.95869
5.00986
5.05873
5.10523
5.1493
5.19087
5.22991
5.2664
5.30033
5.3317
5.36054
5.38686
5.4107
5.43209
5.4511
5.46779
5.48224
5.49451
5.50468
5.51282
5.51898
5.52332
5.52567
5.5262
5.52501
5.52234
5.51803
5.5122
5.50495
5.49637
5.48649
5.47533
5.46285
5.4491
5.43412
5.4179
5.40037
5.3815
5.36122
5.3394
5.31589
5.2905
5.26299
5.2331
5.20058
5.16512
5.12647
5.08433
5.03844
4.9886
4.9346
4.87632
4.81372
4.74679
4.67566
4.60051
4.52162
4.43932
4.35401
4.26611
4.17608
4.08438
3.99147
3.8978
3.80378
3.70978
3.6161
3.52306
3.43093
3.33997
3.25041
3.16246
3.07631
2.99213
2.91004
2.83017
2.75258
2.67734
2.60446
2.53395
2.46582
2.40006
2.33665
2.27554
2.21671
2.16015
2.10582
2.05368
2.00368
1.95573
1.90976
1.86571
1.82352
1.78312
1.74454
1.70788
1.67326
1.64084
1.61137
1.57959
0.193027
0.285267
0.344333
0.389421
0.427468
0.461435
0.492903
0.522896
0.552155
0.581268
0.610728
0.640948
0.672281
0.705013
0.739373
0.775533
0.813616
0.8537
0.895829
0.940016
0.986251
1.03451
1.08474
1.13688
1.19087
1.24665
1.30412
1.36321
1.42386
1.48597
1.54948
1.6143
1.68037
1.74761
1.81595
1.88533
1.95568
2.02692
2.099
2.17186
2.24544
2.31968
2.39454
2.46997
2.54592
2.62235
2.69924
2.77655
2.85425
2.93233
3.01075
3.08951
3.16857
3.24793
3.32756
3.40745
3.48755
3.56785
3.64831
3.72888
3.80953
3.89019
3.9708
4.05129
4.13157
4.21157
4.29117
4.37028
4.44876
4.5265
4.60336
4.67921
4.75389
4.82726
4.89916
4.96943
5.03793
5.1045
5.16898
5.23124
5.29114
5.34855
5.40335
5.45545
5.50474
5.55116
5.59464
5.63513
5.67261
5.70707
5.73852
5.76697
5.79244
5.81497
5.83462
5.85144
5.86551
5.87691
5.88571
5.89198
5.89568
5.89699
5.89594
5.89265
5.88721
5.87973
5.87021
5.85877
5.84549
5.83046
5.81376
5.79544
5.77554
5.75415
5.7313
5.70705
5.68139
5.65433
5.62584
5.59585
5.56425
5.53094
5.4957
5.45835
5.41865
5.37636
5.3312
5.28292
5.23125
5.17596
5.11686
5.05381
4.98674
4.91567
4.8407
4.76202
4.67988
4.59458
4.5065
4.41603
4.32359
4.2296
4.13449
4.03866
3.94251
3.84638
3.75059
3.65545
3.56124
3.46821
3.3766
3.2866
3.19841
3.11217
3.02805
2.94616
2.86657
2.78934
2.71449
2.64204
2.572
2.50437
2.43912
2.37622
2.31564
2.25734
2.20133
2.14755
2.09596
2.04648
1.99906
1.95364
1.91017
1.86863
1.829
1.79127
1.75556
1.72203
1.69118
1.65873
0.210368
0.3063
0.368569
0.41633
0.456694
0.49272
0.526032
0.557677
0.588408
0.618819
0.649408
0.680594
0.712738
0.74614
0.781046
0.817648
0.856091
0.896471
0.93885
0.983256
1.02969
1.07814
1.12857
1.18093
1.23518
1.29125
1.34908
1.40861
1.46978
1.53253
1.59679
1.66249
1.72959
1.79801
1.86769
1.93858
2.01062
2.08374
2.15789
2.233
2.30904
2.38593
2.46364
2.54212
2.62132
2.7012
2.78174
2.86289
2.94464
3.02696
3.10982
3.1932
3.2771
3.36149
3.44634
3.53164
3.61736
3.70346
3.78992
3.87668
3.96369
4.05091
4.13825
4.22563
4.31298
4.40018
4.48713
4.57371
4.65977
4.74517
4.82977
4.9134
4.99588
5.07705
5.15671
5.23469
5.31078
5.38482
5.45662
5.52599
5.59278
5.65681
5.71795
5.77605
5.83099
5.88267
5.93101
5.97592
6.01737
6.05533
6.08979
6.12075
6.14822
6.17223
6.19284
6.2101
6.22408
6.23486
6.24253
6.24697
6.24845
6.24702
6.24274
6.23571
6.226
6.21372
6.19894
6.18175
6.16225
6.14054
6.11672
6.09088
6.06313
6.03354
6.00222
5.96926
5.93471
5.89863
5.86105
5.82197
5.78135
5.73913
5.69521
5.64944
5.60166
5.55165
5.4992
5.4441
5.38606
5.32489
5.26039
5.19244
5.12097
5.04599
4.96758
4.88591
4.80117
4.71366
4.62367
4.53156
4.43771
4.34247
4.24624
4.14937
4.05222
3.95511
3.85833
3.76219
3.667
3.57299
3.48037
3.38934
3.30007
3.21272
3.12745
3.04439
2.96361
2.88515
2.80906
2.73535
2.66405
2.59514
2.52862
2.46446
2.40262
2.34307
2.28581
2.23079
2.17798
2.12731
2.07874
2.03221
1.98769
1.94517
1.90465
1.86612
1.82953
1.79507
1.76305
1.72997
0.22468
0.323307
0.388094
0.43802
0.480315
0.5181
0.553027
0.58615
0.618227
0.649849
0.681505
0.713609
0.746518
0.780533
0.815905
0.852834
0.891476
0.931944
0.974313
1.01863
1.06491
1.11315
1.16334
1.21544
1.26942
1.32525
1.38287
1.44224
1.50331
1.56605
1.63039
1.69629
1.76371
1.83259
1.90289
1.97455
2.04753
2.12177
2.19724
2.27386
2.3516
2.43041
2.51024
2.59104
2.67279
2.75543
2.83894
2.92328
3.00843
3.09437
3.18106
3.2685
3.35667
3.44556
3.53513
3.62537
3.71625
3.80773
3.89979
3.99237
4.08541
4.17887
4.27266
4.3667
4.46089
4.55512
4.64927
4.7432
4.83676
4.9298
5.02213
5.11357
5.20392
5.29298
5.38055
5.46639
5.55029
5.63203
5.7114
5.78817
5.86215
5.93314
6.00095
6.06541
6.12638
6.18371
6.23729
6.28702
6.33283
6.37468
6.41254
6.44639
6.47623
6.50209
6.524
6.54203
6.55624
6.5667
6.57341
6.57647
6.57602
6.57211
6.5648
6.55419
6.54036
6.52339
6.5034
6.48046
6.4547
6.42621
6.39512
6.36154
6.3256
6.28744
6.24718
6.20494
6.16087
6.11505
6.0676
6.01856
5.96802
5.91597
5.8624
5.80725
5.75043
5.6918
5.63121
5.56852
5.50349
5.43593
5.3657
5.29268
5.21681
5.13807
5.05653
4.9723
4.88555
4.79651
4.70542
4.61257
4.51826
4.4228
4.32652
4.22972
4.1327
4.03574
3.93912
3.8431
3.74804
3.65414
3.56159
3.47056
3.3812
3.29368
3.20819
3.12484
3.04369
2.96481
2.88822
2.81396
2.74205
2.67249
2.60529
2.54041
2.47783
2.41752
2.35946
2.30363
2.24999
2.19848
2.14908
2.10173
2.05643
2.01314
1.97189
1.93269
1.89544
1.86022
1.82723
1.79363
0.235869
0.336301
0.402956
0.454551
0.498376
0.537597
0.573882
0.608286
0.64156
0.674283
0.70693
0.739899
0.773533
0.808121
0.843909
0.881095
0.919837
0.960254
1.00243
1.04643
1.09229
1.14001
1.1896
1.24105
1.29435
1.34946
1.40637
1.46505
1.52547
1.5876
1.65143
1.7169
1.78399
1.85266
1.92288
1.99462
2.06783
2.14249
2.21854
2.29595
2.37468
2.45468
2.53591
2.61834
2.70193
2.78664
2.87245
2.95931
3.04721
3.13613
3.22603
3.31692
3.40878
3.50159
3.59533
3.68998
3.78551
3.88189
3.97908
4.07703
4.17569
4.27499
4.37487
4.47521
4.57593
4.6769
4.778
4.87906
4.97993
5.08044
5.18038
5.27954
5.37772
5.47466
5.57014
5.66391
5.7557
5.84526
5.93235
6.0167
6.09808
6.17625
6.25098
6.32208
6.38936
6.45264
6.51179
6.56666
6.61717
6.66325
6.70484
6.74191
6.77446
6.8025
6.82605
6.84517
6.85991
6.87033
6.87648
6.87846
6.87638
6.87026
6.86017
6.84621
6.82845
6.80699
6.78192
6.75333
6.72135
6.68608
6.64765
6.60621
6.56191
6.5149
6.46535
6.41342
6.3593
6.30315
6.24514
6.18541
6.12411
6.06137
5.99723
5.93175
5.86498
5.79682
5.72719
5.65597
5.58278
5.50786
5.43114
5.35252
5.27196
5.18943
5.10495
5.01859
4.93044
4.84065
4.74938
4.65683
4.56322
4.46876
4.37371
4.27829
4.18274
4.0873
3.99218
3.89754
3.80377
3.71112
3.61973
3.52976
3.44134
3.35462
3.26984
3.18711
3.10647
3.02798
2.95167
2.87758
2.80575
2.7362
2.66893
2.60391
2.54112
2.48054
2.42216
2.36596
2.31189
2.25994
2.21005
2.16221
2.11639
2.07259
2.03083
1.9911
1.95333
1.91751
1.88377
1.84979
0.24394
0.345404
0.413325
0.466109
0.51107
0.551394
0.58876
0.624218
0.658508
0.692191
0.725721
0.759476
0.793777
0.828894
0.865056
0.90245
0.941229
0.981512
1.02339
1.06693
1.11218
1.15916
1.20791
1.25841
1.31068
1.36472
1.42053
1.47808
1.53739
1.59844
1.66124
1.72578
1.79198
1.85985
1.92939
2.00057
2.07339
2.14781
2.2238
2.30134
2.3804
2.46093
2.54292
2.62632
2.7111
2.79723
2.8847
2.97345
3.06348
3.15475
3.24722
3.34094
3.43589
3.53205
3.62939
3.72789
3.82752
3.92824
4.03002
4.13283
4.2366
4.34126
4.44674
4.55294
4.65976
4.76706
4.87471
4.98256
5.09041
5.19808
5.30536
5.41202
5.51781
5.62247
5.72573
5.82732
5.92694
6.02429
6.1191
6.21106
6.2999
6.38534
6.46712
6.545
6.61876
6.68818
6.75309
6.81333
6.86877
6.91932
6.9649
7.00546
7.04098
7.07146
7.09692
7.11739
7.13293
7.1436
7.14947
7.15062
7.14721
7.13915
7.12655
7.10948
7.08802
7.06226
7.03227
6.99817
6.96005
6.91805
6.8723
6.82295
6.77016
6.71413
6.65504
6.5931
6.52851
6.46154
6.39239
6.32132
6.24853
6.17432
6.09877
6.02206
5.94379
5.86452
5.7844
5.70351
5.62238
5.54061
5.45793
5.37427
5.28956
5.20376
5.11684
5.02884
4.93978
4.84973
4.7588
4.66709
4.57473
4.48188
4.38869
4.29533
4.20198
4.10881
4.016
3.92375
3.83259
3.7425
3.65357
3.56591
3.47963
3.39484
3.31179
3.23061
3.15138
3.07413
2.9989
2.92573
2.85471
2.78585
2.71914
2.65458
2.59214
2.53182
2.47361
2.41749
2.36344
2.31143
2.26143
2.21343
2.16741
2.12337
2.08133
2.04128
2.00313
1.96689
1.93261
1.89842
0.248981
0.350817
0.419459
0.472986
0.518699
0.559793
0.59795
0.634211
0.669304
0.703769
0.738038
0.772468
0.807353
0.84294
0.879432
0.917
0.955782
0.995891
1.03742
1.08043
1.12498
1.17112
1.21887
1.26826
1.31931
1.37206
1.42652
1.48266
1.5405
1.60009
1.66146
1.72469
1.78963
1.85633
1.92477
1.99498
2.06694
2.14063
2.21606
2.29319
2.37202
2.45252
2.53466
2.61843
2.70379
2.79073
2.87923
2.96925
3.06079
3.15381
3.24827
3.34427
3.44175
3.54069
3.64105
3.74282
3.84595
3.95039
4.05617
4.16324
4.27152
4.38095
4.49144
4.60292
4.71525
4.82833
4.94199
5.05608
5.17041
5.28477
5.39893
5.51265
5.62566
5.73767
5.84839
5.9575
6.06468
6.1696
6.27193
6.37135
6.46752
6.56015
6.64892
6.73356
6.81379
6.88938
6.96011
7.02579
7.08626
7.14139
7.19109
7.23528
7.27392
7.307
7.33452
7.35652
7.37305
7.38415
7.38991
7.39045
7.38594
7.37617
7.36127
7.3413
7.31632
7.28641
7.25166
7.21215
7.168
7.11932
7.06625
7.00894
6.94759
6.88239
6.81356
6.74133
6.66596
6.58774
6.50701
6.42404
6.33907
6.25203
6.16362
6.07419
5.98472
5.89519
5.80554
5.71587
5.6267
5.53717
5.44767
5.35827
5.26892
5.17958
5.0902
5.00075
4.9112
4.82153
4.73172
4.64179
4.55176
4.46168
4.3716
4.28159
4.19176
4.1022
4.013
3.92414
3.83625
3.74934
3.66349
3.5788
3.49532
3.41312
3.33284
3.25431
3.17751
3.10249
3.02926
2.95785
2.88838
2.82091
2.75544
2.69196
2.63046
2.57094
2.51341
2.45786
2.40428
2.35263
2.30291
2.2551
2.2092
2.16522
2.12315
2.08299
2.04466
2.0082
1.97361
1.9394
0.25119
0.35279
0.421665
0.47553
0.521638
0.56318
0.601837
0.638644
0.674313
0.709359
0.744173
0.779134
0.814507
0.8505
0.887288
0.925016
0.963804
1.00375
1.04494
1.08744
1.13132
1.17662
1.22341
1.27166
1.32143
1.3728
1.42584
1.48052
1.53687
1.59492
1.65469
1.71618
1.77944
1.84452
1.91146
1.98026
2.05096
2.12354
2.19801
2.27437
2.35261
2.43272
2.51467
2.59846
2.68407
2.77147
2.86065
2.95158
3.04425
3.13864
3.23471
3.33245
3.43186
3.53295
3.63568
3.74005
3.84602
3.95356
4.06269
4.17333
4.28541
4.39887
4.51363
4.62963
4.74673
4.86482
4.98374
5.10333
5.2234
5.34373
5.46408
5.58418
5.70376
5.82251
5.9401
6.05619
6.17041
6.28242
6.39184
6.49831
6.60146
6.70094
6.79641
6.88755
6.97405
7.05563
7.13203
7.20303
7.26843
7.32808
7.38185
7.42964
7.47139
7.50708
7.53669
7.56025
7.57779
7.58937
7.59506
7.59509
7.58961
7.57826
7.56117
7.53839
7.50999
7.47602
7.43656
7.39169
7.34152
7.28615
7.22573
7.16041
7.09041
7.01592
6.93719
6.85447
6.76805
6.6779
6.5846
6.48866
6.39065
6.29165
6.19161
6.09084
5.99032
5.88935
5.78875
5.68886
5.59002
5.49224
5.39569
5.30043
5.20647
5.11376
5.02221
4.93175
4.84226
4.75363
4.66574
4.57849
4.49177
4.40551
4.31965
4.23416
4.14903
4.06429
3.97997
3.89614
3.81302
3.7307
3.64928
3.56884
3.48942
3.41104
3.33416
3.25879
3.18497
3.11272
3.04207
2.97303
2.90593
2.84066
2.77718
2.71549
2.65559
2.59744
2.54112
2.48665
2.434
2.38316
2.33412
2.28687
2.24144
2.19781
2.156
2.11596
2.0777
2.04127
2.00661
1.9726
0.25083
0.351853
0.420499
0.474274
0.520382
0.562003
0.60082
0.637869
0.673851
0.709272
0.744513
0.779946
0.815772
0.852166
0.889274
0.927213
0.966084
1.00597
1.04693
1.08905
1.13237
1.17698
1.22295
1.27023
1.31891
1.36901
1.42057
1.47362
1.52828
1.58462
1.64272
1.70261
1.76431
1.82789
1.89338
1.96082
2.03024
2.10165
2.17508
2.25055
2.32805
2.40758
2.48914
2.57272
2.65829
2.74585
2.83539
2.92686
3.02027
3.11559
3.2128
3.31188
3.41283
3.51565
3.62032
3.72681
3.83509
3.94511
4.05684
4.17027
4.28534
4.402
4.52019
4.63982
4.76078
4.88295
5.0062
5.13036
5.25524
5.38061
5.50625
5.63187
5.75717
5.88184
6.00551
6.12783
6.2484
6.36682
6.48271
6.59565
6.70523
6.81108
6.91279
7.01002
7.1024
7.18962
7.27139
7.34743
7.41752
7.48146
7.53909
7.5903
7.63498
7.6731
7.70463
7.72958
7.74798
7.75987
7.76532
7.76475
7.75821
7.74517
7.72578
7.70007
7.66809
7.62988
7.58552
7.53507
7.47864
7.41633
7.34827
7.27461
7.19545
7.11095
7.02145
6.92729
6.82886
6.72707
6.622
6.51425
6.4047
6.2929
6.17986
6.06619
5.95262
5.83951
5.72747
5.61701
5.50855
5.40237
5.29869
5.19765
5.09927
5.00351
4.91027
4.8194
4.73071
4.64397
4.55895
4.47541
4.39311
4.31185
4.23143
4.1517
4.07255
3.9939
3.91574
3.83807
3.76097
3.6845
3.60873
3.53373
3.45954
3.38625
3.31407
3.24308
3.17336
3.10493
3.03783
2.97204
2.90784
2.84524
2.78422
2.72479
2.66696
2.61074
2.55623
2.5034
2.45221
2.40266
2.35475
2.30845
2.26382
2.22087
2.17958
2.13997
2.10207
2.06593
2.03145
1.99786
0.248489
0.348335
0.416287
0.46959
0.515389
0.556847
0.595644
0.632808
0.669027
0.704782
0.740423
0.776235
0.812444
0.849219
0.886686
0.924946
0.964078
1.00415
1.0452
1.08729
1.13047
1.17479
1.22027
1.26698
1.31496
1.36431
1.41505
1.46727
1.52102
1.5764
1.63347
1.6923
1.75296
1.81551
1.88001
1.94651
2.01505
2.08564
2.15829
2.23311
2.31009
2.38923
2.47051
2.55394
2.6395
2.72716
2.81692
2.90875
3.00262
3.09852
3.19642
3.29631
3.39817
3.50197
3.60772
3.71538
3.82492
3.93632
4.04956
4.16459
4.2814
4.39993
4.52011
4.64187
4.76513
4.88979
5.01573
5.1428
5.27081
5.39955
5.5288
5.65827
5.78766
5.91664
6.04483
6.17185
6.29729
6.42072
6.5417
6.6598
6.77458
6.8856
6.99244
7.0947
7.19199
7.28394
7.37021
7.45051
7.52455
7.5921
7.65298
7.70702
7.7541
7.79416
7.82715
7.85307
7.87193
7.88376
7.88858
7.88726
7.87944
7.86451
7.84262
7.8138
7.77805
7.73543
7.68595
7.62968
7.56669
7.49709
7.42099
7.33862
7.25028
7.15627
7.05678
6.95225
6.84335
6.72985
6.61253
6.49209
6.36919
6.2443
6.11821
5.99168
5.86555
5.74051
5.6173
5.49659
5.37895
5.26483
5.15455
5.04831
4.94618
4.84813
4.75401
4.66362
4.57667
4.49283
4.41173
4.333
4.25625
4.18113
4.10731
4.03451
3.96252
3.89115
3.8203
3.74991
3.67996
3.61048
3.54148
3.47301
3.40511
3.33786
3.27137
3.20576
3.14108
3.07739
3.01474
2.95318
2.89284
2.83378
2.77602
2.7196
2.66453
2.61078
2.55851