/*--------------------------------*- C++ -*----------------------------------*\
  =========                 |
  \\      /  F ield         | OpenFOAM: The Open Source CFD Toolbox
   \\    /   O peration     | Website:  https://openfoam.org
    \\  /    A nd           | Version:  6
     \\/     M anipulation  |
\*---------------------------------------------------------------------------*/
FoamFile
{
    version     2.0;
    format      ascii;
    class       volScalarField;
    location    "100";
    object      nut;
}
// * * * * * * * * * * * * * * * * * * * * * * * * * * * * * * * * * * * * * //

dimensions      [0 2 -1 0 0 0 0];

internalField   nonuniform List<scalar> 
12225
(
4.14924e-05
3.93417e-05
3.74815e-05
3.54351e-05
3.37808e-05
3.24256e-05
3.15037e-05
3.09147e-05
3.09195e-05
3.11017e-05
3.15729e-05
3.21229e-05
3.31628e-05
3.38431e-05
3.5136e-05
3.57164e-05
3.77785e-05
3.55369e-05
0.000332259
0.000215134
0.000179291
0.000157641
0.000146234
0.000138164
0.000132678
0.000131734
0.000129404
0.000130172
0.000128932
0.000129564
0.000128541
0.000128707
0.000127938
0.000127619
0.000127657
0.000126328
0.000668776
0.000450541
0.000355823
0.000309746
0.000275337
0.000251005
0.000231732
0.000217177
0.000202608
0.000192048
0.000182524
0.000175034
0.000169286
0.000163356
0.000160193
0.000155024
0.000153599
0.000149052
0.000801645
0.00069157
0.000572672
0.000499944
0.000449457
0.000411863
0.000380814
0.000355865
0.000333991
0.000314581
0.000298243
0.000281411
0.000270146
0.000255582
0.000247825
0.000235479
0.000229478
0.000219191
0.000839616
0.000810134
0.000740802
0.000676304
0.000624005
0.000581265
0.000545908
0.000514405
0.000489507
0.00046421
0.000445765
0.00042374
0.000409681
0.000390316
0.000379295
0.00036234
0.000353316
0.000337925
0.000850345
0.000843264
0.000819563
0.000786476
0.000750836
0.000715795
0.000685785
0.000656006
0.000632525
0.000607332
0.000588883
0.000566962
0.000552001
0.000532643
0.000520205
0.000502943
0.000492218
0.000476021
0.000851581
0.000851014
0.000843301
0.000833456
0.000817146
0.000796902
0.000777883
0.000756654
0.000738871
0.000719017
0.000703426
0.000685405
0.000671879
0.000655549
0.000643833
0.000628868
0.000618643
0.000603993
0.000851584
0.000851811
0.000850043
0.000847451
0.000841408
0.000833746
0.000824806
0.000813396
0.000802789
0.000790396
0.000779636
0.000767398
0.00075725
0.000745519
0.000736203
0.000725054
0.000716549
0.000705232
0.000851675
0.000851527
0.000851019
0.000850338
0.000848877
0.000846165
0.000843025
0.000838285
0.000833387
0.000827323
0.000821163
0.000814695
0.000808299
0.00080137
0.00079503
0.00078813
0.000781795
0.000774733
0.000851756
0.000851384
0.000851045
0.000850631
0.000850248
0.000849364
0.000848404
0.000846773
0.000844946
0.000842512
0.000839897
0.000836758
0.000833736
0.00083007
0.000826856
0.000822778
0.000819691
0.000815022
0.000851785
0.000851357
0.000851013
0.000850613
0.00085033
0.000849903
0.000849525
0.000848925
0.000848298
0.000847384
0.000846453
0.000845156
0.000843962
0.000842311
0.000840943
0.00083896
0.000837551
0.000835242
0.000851789
0.000851359
0.000850996
0.000850605
0.000850292
0.000849938
0.000849645
0.000849278
0.000848952
0.000848499
0.000848091
0.000847497
0.000846983
0.000846224
0.000845617
0.000844687
0.000844019
0.000842926
0.000851786
0.000851363
0.000850986
0.000850604
0.000850269
0.000849926
0.000849629
0.000849312
0.000849041
0.000848725
0.000848458
0.00084812
0.000847836
0.000847456
0.000847145
0.000846712
0.000846372
0.000845884
0.000851783
0.000851364
0.000850978
0.000850602
0.000850256
0.000849917
0.000849607
0.000849299
0.000849022
0.000848739
0.000848486
0.000848221
0.000847985
0.000847731
0.000847504
0.000847254
0.00084703
0.000846781
0.000851781
0.000851364
0.000850973
0.000850598
0.000850247
0.000849909
0.000849592
0.000849287
0.000849
0.000848723
0.000848463
0.000848211
0.000847975
0.000847745
0.000847529
0.000847317
0.000847118
0.000846924
0.00085178
0.000851363
0.000850969
0.000850594
0.000850239
0.000849901
0.000849581
0.000849275
0.000848985
0.000848708
0.000848445
0.000848193
0.000847953
0.000847724
0.000847506
0.000847298
0.000847099
0.000846909
0.000851779
0.000851363
0.000850967
0.000850591
0.000850234
0.000849895
0.000849573
0.000849266
0.000848974
0.000848696
0.000848431
0.000848178
0.000847936
0.000847706
0.000847486
0.000847276
0.000847075
0.000846884
0.000851779
0.000851362
0.000850965
0.000850589
0.000850231
0.000849891
0.000849568
0.00084926
0.000848967
0.000848687
0.000848421
0.000848167
0.000847924
0.000847692
0.000847471
0.000847259
0.000847057
0.000846864
0.000851779
0.000851362
0.000850965
0.000850588
0.00085023
0.00084989
0.000849566
0.000849257
0.000848963
0.000848683
0.000848416
0.000848161
0.000847918
0.000847685
0.000847463
0.00084725
0.000847047
0.000846853
0.000851779
0.000851362
0.000850966
0.000850589
0.000850232
0.000849892
0.000849568
0.00084926
0.000848967
0.000848687
0.00084842
0.000848165
0.000847921
0.000847688
0.000847465
0.000847253
0.000847048
0.000846853
0.000851779
0.000851363
0.000850967
0.000850592
0.000850235
0.000849897
0.000849574
0.000849268
0.000848974
0.000848695
0.000848426
0.000848172
0.000847923
0.000847688
0.000847456
0.000847238
0.00084702
0.000846815
0.000851778
0.000851366
0.000850968
0.000850599
0.00085024
0.000849908
0.000849581
0.000849275
0.000848966
0.000848673
0.000848367
0.000848075
0.00084776
0.000847461
0.000847129
0.000846819
0.000846466
0.000846147
0.000851773
0.000851376
0.000850971
0.000850615
0.000850241
0.00084989
0.000849479
0.000849055
0.000848531
0.000847981
0.000847305
0.000846609
0.000845773
0.000844947
0.000843965
0.000843042
0.000841934
0.000840959
0.000851768
0.000851415
0.000850964
0.000850548
0.000849861
0.000848967
0.000847612
0.000845978
0.000843909
0.000841642
0.000838963
0.000836225
0.000833131
0.000830132
0.000826787
0.00082371
0.000820221
0.000817223
0.000851859
0.00085138
0.000850196
0.000848243
0.000844471
0.000839356
0.000832769
0.000825665
0.000817972
0.000810024
0.000801637
0.000793652
0.000785364
0.000777746
0.000769793
0.00076276
0.000755196
0.000748882
0.000852108
0.000847667
0.000839902
0.000827146
0.000808712
0.000789649
0.000769986
0.000751424
0.000733325
0.000716919
0.000700968
0.00068682
0.000672883
0.000660733
0.000648457
0.000638033
0.000627065
0.000618149
0.000843241
0.000822507
0.000775188
0.000726458
0.000684904
0.000649857
0.000618477
0.000592035
0.000568409
0.00054834
0.000529732
0.000514038
0.000498817
0.000486089
0.000473295
0.000462812
0.000451752
0.000442949
0.000795687
0.000668243
0.000570629
0.000509908
0.000465613
0.000431192
0.000404161
0.000382497
0.000364225
0.000349096
0.000335979
0.000325103
0.000314566
0.000306294
0.000298036
0.000291451
0.000284386
0.000279045
0.000501313
0.000348359
0.000292674
0.000259183
0.000236327
0.000221181
0.000211628
0.000203864
0.000198572
0.000195086
0.000192231
0.000190381
0.000188595
0.000187455
0.000186183
0.000185491
0.000184576
0.000184167
7.27386e-05
7.02254e-05
6.79544e-05
6.56136e-05
6.3383e-05
6.12761e-05
5.94945e-05
5.7955e-05
5.67107e-05
5.57026e-05
5.49767e-05
5.44165e-05
5.41073e-05
5.38779e-05
5.3891e-05
5.39271e-05
5.40844e-05
5.43135e-05
3.72118e-06
4.94406e-05
7.40412e-05
9.59106e-05
0.000115905
0.000134465
0.000151788
0.00016735
0.000180462
0.000190354
0.000196365
0.0001994
0.000199638
0.000179528
0.000143907
1.83661e-05
1.75322e-05
1.94387e-05
2.30744e-05
2.7214e-05
3.70801e-05
4.62657e-05
5.15033e-05
5.34867e-05
5.5678e-05
5.78185e-05
5.99737e-05
6.21178e-05
6.4254e-05
6.63596e-05
6.84379e-05
7.04704e-05
7.24633e-05
7.44016e-05
7.6294e-05
7.81282e-05
7.99151e-05
8.16438e-05
8.33264e-05
8.49531e-05
8.65365e-05
8.80677e-05
8.95592e-05
9.10026e-05
9.24111e-05
9.37758e-05
9.5109e-05
9.64023e-05
9.76672e-05
9.88954e-05
0.000100098
0.000101266
0.000102411
0.000103524
0.000104614
0.000105673
0.000106711
0.000107718
0.000108704
0.000109661
0.000110595
0.000111501
0.000112384
0.000113238
0.000114069
0.000114872
0.00011565
0.000116402
0.00011713
0.000117829
0.000118503
0.000119149
0.000119767
0.000120358
0.000120921
0.000121459
0.00012197
0.000122458
0.00012292
0.000123363
0.000123782
0.000124185
0.000124568
0.000124939
0.000125294
0.000125641
0.000125974
0.000126305
0.000126627
0.00012695
0.000127269
0.000127576
0.000127856
0.000128074
0.000128158
0.000127946
0.000126715
0.000128581
0.000131353
0.000128183
0.000131922
0.000129284
0.000131604
0.000129151
0.000132904
0.000132813
0.000133472
0.000132468
0.000130186
0.000131013
0.000132558
0.000134567
0.000131928
0.000133135
0.000135135
0.000134358
0.000134213
0.000132544
0.000133165
0.000132685
0.000134079
0.000133448
0.000133466
0.000133113
0.000132799
0.000132398
0.000131943
0.000131434
0.000130866
0.000130222
0.000129505
0.000128715
0.000127846
0.000126903
0.000125924
0.000124837
0.000123676
0.000122438
0.000121122
0.000119741
0.000118316
0.000116787
0.00011515
0.000113715
0.000111727
0.000109056
0.000107634
0.000106477
0.000105334
0.000104167
0.000102986
0.000101789
0.000100583
9.94134e-05
9.82167e-05
9.69384e-05
9.57161e-05
9.4552e-05
9.3363e-05
9.2162e-05
9.09612e-05
8.97778e-05
8.86253e-05
8.74943e-05
8.63834e-05
8.52984e-05
8.42411e-05
8.32097e-05
8.22065e-05
8.12307e-05
8.02827e-05
7.93598e-05
7.84633e-05
7.75799e-05
7.67314e-05
7.58474e-05
7.50294e-05
7.41428e-05
7.2684e-05
7.11241e-05
8.48141e-06
7.44278e-05
0.000150422
0.00020997
0.000254521
0.000287649
0.00031161
0.000328286
0.000338656
0.000343202
0.000341227
0.000331978
0.000316236
0.000295759
0.000266494
0.000227122
0.00022403
0.000231789
0.000244989
0.00026218
0.000283544
0.000305251
0.000320249
0.000332221
0.000344573
0.00035769
0.000371597
0.000386326
0.000401833
0.000418013
0.000434751
0.000451936
0.000469446
0.000487168
0.000504989
0.000522819
0.00054057
0.000558168
0.00057555
0.000592667
0.000609474
0.00062594
0.000642033
0.000657731
0.00067308
0.000688078
0.000702731
0.000717043
0.000731024
0.000744682
0.000758029
0.000771071
0.00078382
0.000796279
0.000808458
0.000820357
0.000831981
0.000843327
0.000854398
0.000865187
0.000875694
0.000885909
0.00089583
0.000905443
0.000914749
0.00092373
0.00093239
0.000940713
0.000948707
0.000956367
0.000963685
0.0009706
0.000977117
0.000983217
0.00098891
0.000994179
0.000999038
0.00100348
0.00100752
0.00101116
0.00101444
0.00101736
0.00101996
0.00102226
0.00102431
0.00102613
0.00102777
0.00102927
0.00103071
0.00103215
0.00103373
0.0010355
0.00103755
0.00104
0.00104299
0.00104672
0.00105145
0.00105783
0.00106049
0.00106036
0.00106711
0.0010682
0.00107534
0.0010797
0.00108922
0.00109539
0.00109913
0.00110208
0.00110365
0.00111118
0.00111888
0.00112333
0.0011259
0.00113498
0.00114144
0.00114949
0.00115309
0.0011531
0.00116318
0.00115986
0.00116994
0.00117246
0.00117922
0.00118341
0.00118719
0.0011903
0.00119273
0.00119444
0.00119555
0.0011956
0.00119467
0.00119273
0.00118977
0.00118577
0.00118084
0.0011749
0.00116802
0.00116022
0.00115154
0.00114203
0.00113184
0.00112092
0.00110901
0.00109716
0.00108456
0.00106694
0.00104755
0.00102738
0.00100686
0.000986184
0.000965519
0.000944984
0.000924584
0.000904418
0.000884591
0.000865027
0.000845919
0.000827613
0.000809777
0.000792206
0.000775066
0.00075844
0.00074232
0.000726577
0.000711252
0.000696395
0.000681976
0.000667987
0.000654429
0.000641292
0.000628539
0.000616186
0.000604088
0.00059245
0.000580689
0.000569701
0.000557579
0.000546539
0.00052578
0.000474432
1.52246e-05
0.000107099
0.000209964
0.000294086
0.000359695
0.000409653
0.00044652
0.000472282
0.000488537
0.000496534
0.000498315
0.000496299
0.000492232
0.000488315
0.000484838
0.000483706
0.000493288
0.000510079
0.000531792
0.00055717
0.000585541
0.000612159
0.00063752
0.000663075
0.000689742
0.000717764
0.000747761
0.000779662
0.000812728
0.000846658
0.000881244
0.000916315
0.000951689
0.000987168
0.00102255
0.00105774
0.00109262
0.00112709
0.00116108
0.00119452
0.00122737
0.00125959
0.00129116
0.00132208
0.00135235
0.001382
0.00141101
0.00143941
0.00146722
0.00149444
0.00152109
0.00154719
0.00157274
0.00159777
0.00162229
0.00164629
0.00166978
0.00169277
0.00171526
0.00173723
0.0017587
0.00177964
0.00180005
0.00181991
0.00183921
0.00185795
0.00187609
0.00189363
0.00191055
0.00192684
0.00194247
0.00195742
0.00197168
0.00198522
0.00199805
0.00201016
0.00202154
0.0020322
0.00204215
0.00205139
0.00205996
0.00206788
0.00207519
0.00208192
0.00208814
0.00209388
0.00209922
0.00210422
0.002109
0.00211366
0.00211833
0.00212312
0.00212814
0.00213349
0.00213923
0.00214535
0.00215165
0.00215755
0.00216158
0.00216582
0.00217267
0.00217803
0.00218625
0.00219381
0.002203
0.0022102
0.00221612
0.00222222
0.0022287
0.0022383
0.00224716
0.00225446
0.00226231
0.00227274
0.00228161
0.00229147
0.00229992
0.00230729
0.00231693
0.00232021
0.00232795
0.00233307
0.00233962
0.00234467
0.00234852
0.00235103
0.00235211
0.00235163
0.00234953
0.00234557
0.00233973
0.00233196
0.00232223
0.00231053
0.00229696
0.00228151
0.00226425
0.00224524
0.0022246
0.00220242
0.00217887
0.00215402
0.0021278
0.00210079
0.00207276
0.00204108
0.00200705
0.00197169
0.00193566
0.0018993
0.0018629
0.00182663
0.0017906
0.00175502
0.00172023
0.00168612
0.00165306
0.00162169
0.00159108
0.0015606
0.001531
0.00150241
0.00147478
0.00144762
0.00142117
0.00139556
0.00137067
0.00134647
0.00132298
0.00130017
0.00127797
0.00125636
0.00123514
0.0012145
0.00119375
0.00117382
0.00115236
0.00113211
0.00110531
0.00103906
2.28354e-05
0.000138205
0.000263505
0.000367384
0.000449812
0.00051349
0.000561619
0.000597048
0.000622346
0.00063997
0.0006525
0.000662647
0.000673084
0.000682878
0.000694275
0.000708943
0.000728593
0.000752857
0.000780831
0.000811474
0.000843573
0.00087811
0.000914632
0.000953091
0.000993608
0.00103624
0.00108042
0.00112566
0.00117198
0.00121917
0.00126697
0.00131534
0.00136414
0.00141327
0.00146229
0.001511
0.00155925
0.00160693
0.00165395
0.00170026
0.0017458
0.00179054
0.00183445
0.00187754
0.0019198
0.00196124
0.00200187
0.00204169
0.00208073
0.002119
0.00215653
0.00219331
0.00222938
0.00226475
0.00229942
0.00233341
0.00236672
0.00239936
0.00243132
0.00246261
0.00249321
0.00252313
0.00255234
0.00258083
0.00260858
0.00263559
0.00266181
0.00268725
0.00271187
0.00273565
0.00275857
0.00278061
0.00280175
0.00282197
0.00284126
0.00285961
0.00287701
0.00289348
0.002909
0.00292361
0.00293732
0.00295015
0.00296215
0.00297336
0.00298383
0.00299362
0.00300281
0.00301146
0.00301969
0.0030276
0.0030353
0.00304289
0.00305046
0.00305805
0.00306565
0.00307319
0.00308046
0.00308718
0.00309325
0.00309957
0.00310671
0.00311377
0.00312179
0.00312976
0.00313798
0.00314535
0.00315221
0.00315928
0.00316682
0.00317547
0.00318384
0.00319173
0.00319997
0.00320908
0.00321775
0.00322759
0.0032377
0.00324539
0.00325186
0.0032562
0.00326226
0.00326724
0.00327177
0.00327494
0.00327659
0.00327654
0.00327481
0.00327111
0.00326527
0.00325713
0.0032466
0.0032336
0.0032181
0.0032001
0.00317965
0.00315678
0.00313158
0.00310414
0.00307457
0.00304302
0.00300966
0.00297462
0.00293802
0.00290013
0.00286085
0.00281907
0.00277524
0.00273003
0.00268402
0.0026376
0.00259106
0.00254464
0.00249851
0.00245288
0.00240804
0.00236405
0.00232108
0.00227952
0.00223914
0.00220022
0.00216297
0.00212721
0.00209291
0.00205879
0.00202565
0.00199372
0.00196266
0.00193245
0.00190316
0.00187471
0.00184698
0.00181991
0.00179333
0.00176731
0.00174134
0.00171595
0.00168953
0.00166296
0.00163751
0.00156953
3.07824e-05
0.000165785
0.000312006
0.000434022
0.000532119
0.000608989
0.000668493
0.00071413
0.000749041
0.000776097
0.000797975
0.000817123
0.000835591
0.000854744
0.00087587
0.00089995
0.000927617
0.000958958
0.000993733
0.00103158
0.0010722
0.00111558
0.00116155
0.00120998
0.0012607
0.00131347
0.00136796
0.00142384
0.00148092
0.00153898
0.00159781
0.00165705
0.00171646
0.00177578
0.00183479
0.00189341
0.0019515
0.00200897
0.00206572
0.00212168
0.0021768
0.00223105
0.00228438
0.00233679
0.00238828
0.00243884
0.00248848
0.00253721
0.00258504
0.00263199
0.00267808
0.00272332
0.00276773
0.00281133
0.00285412
0.00289612
0.00293733
0.00297776
0.00301741
0.00305628
0.00309436
0.00313164
0.00316811
0.00320375
0.00323855
0.00327248
0.00330553
0.00333765
0.00336884
0.00339906
0.00342829
0.00345649
0.00348366
0.00350975
0.00353476
0.00355868
0.00358148
0.00360316
0.00362372
0.00364318
0.00366153
0.00367881
0.00369504
0.00371026
0.00372451
0.00373784
0.00375033
0.00376203
0.00377303
0.00378343
0.00379331
0.00380275
0.00381183
0.00382057
0.00382897
0.00383697
0.00384445
0.00385136
0.00385779
0.0038641
0.00387051
0.00387688
0.00388344
0.00388996
0.00389639
0.00390249
0.00390839
0.00391432
0.00392039
0.00392684
0.00393347
0.00393989
0.00394601
0.00395313
0.00396135
0.00396926
0.00397547
0.00398017
0.00398457
0.00398828
0.00399194
0.00399475
0.00399662
0.00399714
0.00399605
0.00399311
0.00398831
0.00398137
0.00397209
0.00396032
0.00394593
0.00392882
0.00390896
0.00388631
0.00386091
0.00383281
0.00380207
0.00376881
0.00373315
0.00369527
0.00365533
0.00361352
0.00356999
0.00352491
0.00347827
0.0034297
0.00337941
0.00332786
0.00327549
0.00322268
0.00316972
0.00311686
0.0030643
0.00301226
0.00296099
0.0029106
0.00286125
0.00281316
0.00276635
0.00272094
0.00267711
0.00263518
0.00259553
0.00255731
0.00252064
0.00248557
0.0024514
0.00241806
0.00238584
0.00235462
0.00232411
0.00229425
0.00226491
0.00223609
0.00220748
0.00217927
0.00215058
0.0021212
0.00209504
0.00202899
3.86155e-05
0.000190873
0.000355797
0.000494658
0.000607253
0.000696944
0.000767667
0.00082342
0.000867708
0.000903643
0.000933997
0.000961203
0.000987305
0.00101392
0.00104229
0.00107331
0.00110751
0.00114513
0.00118619
0.00123056
0.00127809
0.00132863
0.00138199
0.00143796
0.00149628
0.00155667
0.00161881
0.0016824
0.00174717
0.00181284
0.00187915
0.00194584
0.00201264
0.00207934
0.00214576
0.00221176
0.00227721
0.00234201
0.00240606
0.00246929
0.00253165
0.0025931
0.0026536
0.00271314
0.00277171
0.0028293
0.00288593
0.00294159
0.00299629
0.00305007
0.00310292
0.00315486
0.00320592
0.00325611
0.00330544
0.00335392
0.00340156
0.00344837
0.00349434
0.00353948
0.00358377
0.00362722
0.0036698
0.0037115
0.00375229
0.00379216
0.00383107
0.003869
0.00390592
0.00394178
0.00397657
0.00401025
0.00404277
0.00407413
0.00410428
0.00413319
0.00416086
0.00418726
0.00421237
0.0042362
0.00425875
0.00428001
0.00430002
0.00431878
0.00433634
0.00435272
0.00436799
0.00438219
0.00439538
0.00440765
0.00441906
0.00442967
0.00443955
0.00444872
0.00445721
0.00446498
0.004472
0.00447829
0.00448393
0.00448909
0.0044939
0.0044984
0.00450263
0.00450659
0.00451031
0.00451374
0.00451696
0.00452002
0.00452268
0.00452533
0.00452885
0.00453334
0.00453646
0.00453927
0.00454245
0.0045455
0.00454765
0.00454921
0.00455029
0.00455089
0.00455105
0.00455046
0.0045489
0.00454611
0.00454184
0.00453588
0.00452806
0.00451815
0.00450594
0.00449127
0.00447398
0.00445396
0.00443114
0.00440548
0.00437699
0.00434569
0.00431166
0.004275
0.00423584
0.00419433
0.00415066
0.004105
0.00405752
0.00400838
0.00395765
0.00390529
0.00385147
0.00379651
0.00374074
0.00368449
0.00362805
0.00357166
0.00351554
0.00345991
0.00340497
0.00335088
0.0032978
0.00324587
0.00319518
0.00314583
0.00309797
0.00305179
0.00300752
0.00296543
0.00292562
0.002888
0.00285217
0.00281786
0.00278496
0.00275286
0.00272135
0.00269048
0.00266008
0.00263013
0.00260047
0.00257114
0.00254167
0.00251158
0.00248439
0.00242567
4.60802e-05
0.000213121
0.000394497
0.000548762
0.000674841
0.00077674
0.000858355
0.000923985
0.000977367
0.00102177
0.00106004
0.00109464
0.00112765
0.00116075
0.00119522
0.001232
0.00127169
0.00131463
0.00136093
0.00141059
0.00146348
0.00151944
0.00157826
0.00163969
0.00170345
0.00176924
0.00183676
0.0019057
0.00197578
0.00204671
0.00211824
0.00219011
0.00226209
0.002334
0.00240564
0.00247688
0.00254759
0.00261766
0.002687
0.00275555
0.00282324
0.00289003
0.00295588
0.00302078
0.00308471
0.00314767
0.00320966
0.00327068
0.00333075
0.00338987
0.00344807
0.00350536
0.00356175
0.00361727
0.00367192
0.00372571
0.00377866
0.00383077
0.00388205
0.00393248
0.00398207
0.0040308
0.00407866
0.00412563
0.00417169
0.0042168
0.00426093
0.00430406
0.00434613
0.00438712
0.00442698
0.00446567
0.00450314
0.00453935
0.00457426
0.00460784
0.00464004
0.00467083
0.00470018
0.00472808
0.0047545
0.00477943
0.00480289
0.00482485
0.00484535
0.00486441
0.00488205
0.0048983
0.00491323
0.00492687
0.00493929
0.00495053
0.00496065
0.00496967
0.00497764
0.00498456
0.00499044
0.00499531
0.00499924
0.00500233
0.00500468
0.00500638
0.00500741
0.00500789
0.00500797
0.0050076
0.00500692
0.00500614
0.00500472
0.00500319
0.00500197
0.00500062
0.00499869
0.00499659
0.00499442
0.00499203
0.00498924
0.0049861
0.00498264
0.00497885
0.00497466
0.00496989
0.00496435
0.00495781
0.00495008
0.00494092
0.00493014
0.00491751
0.00490282
0.00488586
0.00486647
0.00484451
0.00481987
0.0047925
0.00476236
0.00472947
0.00469389
0.0046557
0.00461501
0.00457196
0.00452672
0.00447944
0.0044303
0.00437946
0.00432704
0.00427313
0.00421791
0.0041616
0.00410451
0.00404691
0.00398905
0.00393118
0.00387351
0.00381626
0.00375964
0.00370382
0.00364892
0.00359509
0.00354242
0.00349103
0.00344102
0.00339255
0.00334578
0.00330088
0.00325827
0.00321854
0.00318138
0.00314634
0.00311308
0.00308111
0.00305016
0.00301979
0.00298968
0.00295995
0.00293048
0.00290127
0.00287208
0.00284253
0.0028149
0.00276389
5.29661e-05
0.000232302
0.000427787
0.000595816
0.000734272
0.00084765
0.000939693
0.00101488
0.00107707
0.00112963
0.00117546
0.00121703
0.00125645
0.00129542
0.00133528
0.00137701
0.00142131
0.00146858
0.00151902
0.00157268
0.00162948
0.00168928
0.00175185
0.00181695
0.00188431
0.00195362
0.00202461
0.00209696
0.00217041
0.00224469
0.00231954
0.00239474
0.00247007
0.00254535
0.00262041
0.0026951
0.00276932
0.00284295
0.00291591
0.00298812
0.00305952
0.00313008
0.00319975
0.00326852
0.00333637
0.00340328
0.00346927
0.00353433
0.00359847
0.00366171
0.00372406
0.00378554
0.00384616
0.00390595
0.0039649
0.00402305
0.00408039
0.00413694
0.00419269
0.00424764
0.00430179
0.00435512
0.00440761
0.00445925
0.00451001
0.00455985
0.00460873
0.00465662
0.00470347
0.00474922
0.00479383
0.00483724
0.00487939
0.00492023
0.00495969
0.00499773
0.00503428
0.0050693
0.00510274
0.00513456
0.00516471
0.00519317
0.00521992
0.00524493
0.0052682
0.00528974
0.00530955
0.00532764
0.00534405
0.00535882
0.00537197
0.00538355
0.00539361
0.00540218
0.0054093
0.005415
0.0054193
0.00542227
0.00542395
0.00542441
0.0054237
0.0054221
0.00541924
0.00541551
0.00541135
0.00540692
0.00540158
0.00539555
0.00538894
0.00538197
0.0053748
0.00536732
0.00535945
0.00535133
0.00534304
0.00533459
0.00532596
0.00531718
0.00530828
0.00529926
0.00529005
0.00528053
0.00527056
0.00525997
0.00524855
0.00523611
0.00522244
0.0052073
0.00519047
0.00517172
0.00515086
0.00512772
0.00510216
0.00507408
0.00504344
0.00501023
0.00497447
0.00493622
0.00489556
0.00485259
0.00480746
0.0047603
0.00471128
0.00466055
0.00460824
0.00455451
0.00449953
0.0044435
0.00438666
0.00432926
0.00427153
0.00421371
0.004156
0.00409863
0.00404181
0.0039857
0.00393044
0.00387615
0.00382291
0.00377086
0.00372011
0.00367078
0.00362299
0.0035769
0.00353276
0.00349135
0.00345327
0.00341784
0.00338452
0.00335285
0.00332246
0.00329299
0.00326415
0.00323559
0.00320718
0.00317892
0.00315071
0.00312235
0.00309505
0.00305079
5.9111e-05
0.000248327
0.000455566
0.000635594
0.000785199
0.000909157
0.001011
0.00109528
0.00116591
0.0012263
0.00127935
0.00132755
0.00137298
0.00141737
0.00146207
0.00150813
0.00155628
0.00160701
0.00166058
0.0017171
0.00177654
0.00183878
0.00190364
0.00197088
0.00204025
0.00211148
0.0021843
0.00225842
0.00233359
0.00240957
0.00248611
0.00256301
0.00264008
0.00271714
0.00279403
0.00287063
0.00294681
0.00302248
0.00309756
0.00317197
0.00324565
0.00331857
0.00339069
0.00346198
0.00353243
0.00360202
0.00367077
0.00373866
0.00380572
0.00387195
0.00393737
0.004002
0.00406585
0.00412895
0.00419131
0.00425294
0.00431386
0.00437406
0.00443356
0.00449235
0.00455043
0.00460777
0.00466436
0.00472018
0.0047752
0.00482937
0.00488265
0.00493499
0.00498633
0.00503662
0.00508579
0.00513376
0.00518047
0.00522584
0.0052698
0.00531226
0.00535316
0.00539242
0.00542996
0.00546573
0.00549965
0.00553168
0.00556177
0.00558987
0.00561596
0.00564002
0.00566202
0.00568198
0.00569989
0.00571577
0.00572965
0.00574156
0.00575152
0.00575959
0.00576578
0.00577016
0.00577277
0.00577365
0.00577287
0.0057705
0.00576632
0.00576063
0.0057539
0.0057463
0.00573787
0.00572813
0.00571737
0.00570569
0.00569322
0.00568011
0.00566649
0.00565241
0.00563791
0.00562311
0.00560811
0.00559301
0.00557787
0.00556276
0.00554775
0.00553287
0.00551809
0.00550335
0.00548857
0.00547361
0.00545831
0.00544249
0.00542593
0.00540842
0.00538969
0.00536951
0.00534765
0.00532392
0.00529814
0.00527018
0.00523995
0.00520742
0.00517259
0.00513546
0.00509607
0.0050545
0.00501083
0.00496518
0.00491768
0.00486847
0.00481769
0.00476551
0.00471209
0.0046576
0.00460226
0.00454629
0.0044899
0.00443332
0.00437674
0.0043204
0.00426451
0.00420924
0.00415473
0.00410106
0.00404835
0.0039967
0.00394626
0.00389714
0.00384946
0.00380332
0.00375894
0.00371687
0.00367843
0.00364302
0.00360996
0.00357874
0.00354899
0.00352038
0.00349265
0.00346553
0.00343881
0.00341206
0.00338527
0.00335843
0.00333202
0.00329336
6.44062e-05
0.000261227
0.000477905
0.000668083
0.000827481
0.000960948
0.0010718
0.00116454
0.00124311
0.00131088
0.00137074
0.00142516
0.0014762
0.00152557
0.00157463
0.00162445
0.00167581
0.00172924
0.00178508
0.00184347
0.00190446
0.00196796
0.00203384
0.00210189
0.00217191
0.00224364
0.00231684
0.00239127
0.0024667
0.00254289
0.00261966
0.00269679
0.00277412
0.00285149
0.00292876
0.00300581
0.00308253
0.00315883
0.00323463
0.00330986
0.00338447
0.00345841
0.00353165
0.00360418
0.00367597
0.00374702
0.00381732
0.00388689
0.00395574
0.00402387
0.0040913
0.00415807
0.00422419
0.00428968
0.00435456
0.00441884
0.00448255
0.00454568
0.00460825
0.00467024
0.00473166
0.00479249
0.0048527
0.00491228
0.00497117
0.00502935
0.00508675
0.00514332
0.00519899
0.00525369
0.00530734
0.00535985
0.00541113
0.00546108
0.00550961
0.00555662
0.00560201
0.00564567
0.00568752
0.00572746
0.00576539
0.00580124
0.00583493
0.00586639
0.00589556
0.00592241
0.00594688
0.00596896
0.00598863
0.00600588
0.00602073
0.00603319
0.00604329
0.00605105
0.00605652
0.00605974
0.00606078
0.00605969
0.00605655
0.00605106
0.00604357
0.00603452
0.00602409
0.00601221
0.00599869
0.00598369
0.00596734
0.00594978
0.00593114
0.00591158
0.00589124
0.00587026
0.00584875
0.00582685
0.00580474
0.00578254
0.0057604
0.00573846
0.00571682
0.00569557
0.00567476
0.00565439
0.00563443
0.00561479
0.00559537
0.005576
0.00555649
0.00553664
0.00551616
0.00549477
0.00547225
0.00544836
0.00542291
0.0053957
0.0053666
0.00533555
0.00530253
0.00526748
0.00523039
0.00519126
0.00515015
0.00510713
0.0050623
0.00501576
0.00496765
0.00491812
0.00486737
0.00481546
0.00476264
0.0047091
0.00465504
0.00460065
0.00454614
0.00449174
0.00443769
0.00438418
0.00433131
0.00427914
0.00422779
0.0041774
0.00412811
0.00408004
0.00403331
0.00398802
0.00394435
0.00390279
0.00386473
0.00382982
0.00379732
0.00376674
0.00373773
0.00370999
0.00368328
0.0036574
0.00363215
0.00360726
0.00358214
0.00355693
0.00353176
0.00349775
6.87836e-05
0.000271098
0.00049497
0.000693371
0.000861089
0.00100274
0.00112176
0.00122219
0.001308
0.00138253
0.00144864
0.00150875
0.00156489
0.00161873
0.00167163
0.00172465
0.0017786
0.00183404
0.00189136
0.00195077
0.00201235
0.00207607
0.00214185
0.00220954
0.00227895
0.0023499
0.00242217
0.00249555
0.00256985
0.00264489
0.00272047
0.00279644
0.00287263
0.0029489
0.00302515
0.00310125
0.00317711
0.00325265
0.00332779
0.00340247
0.00347665
0.00355029
0.00362335
0.00369582
0.00376768
0.00383895
0.0039096
0.00397967
0.00404915
0.00411808
0.00418646
0.00425433
0.00432173
0.00438868
0.0044552
0.00452131
0.00458703
0.00465236
0.00471732
0.00478191
0.00484611
0.00490992
0.00497332
0.00503626
0.00509872
0.00516065
0.00522197
0.00528263
0.00534255
0.00540164
0.00545979
0.00551692
0.0055729
0.00562763
0.00568097
0.0057328
0.00578299
0.00583142
0.00587796
0.00592248
0.00596485
0.00600498
0.00604274
0.00607805
0.0061108
0.00614094
0.00616838
0.00619309
0.00621501
0.00623414
0.00625044
0.00626394
0.00627463
0.00628254
0.00628771
0.00629019
0.00629003
0.00628731
0.00628194
0.00627399
0.00626378
0.00625158
0.00623737
0.00622109
0.00620285
0.00618275
0.00616092
0.00613753
0.00611273
0.0060867
0.00605962
0.00603166
0.006003
0.00597383
0.00594437
0.00591482
0.00588537
0.00585624
0.00582759
0.00579958
0.00577234
0.00574596
0.00572046
0.00569583
0.00567202
0.00564888
0.00562626
0.00560403
0.00558181
0.00555934
0.00553635
0.00551261
0.00548788
0.00546191
0.00543446
0.00540552
0.00537501
0.0053428
0.00530882
0.00527302
0.00523537
0.00519591
0.00515468
0.00511176
0.00506726
0.00502133
0.0049742
0.00492572
0.00487628
0.00482602
0.00477511
0.00472374
0.00467208
0.00462037
0.00456894
0.00451796
0.00446747
0.00441754
0.00436826
0.0043198
0.00427235
0.00422602
0.00418095
0.00413722
0.00409503
0.00405488
0.00401805
0.00398411
0.00395249
0.00392274
0.00389457
0.00386771
0.00384199
0.00381721
0.00379324
0.00376988
0.00374649
0.0037229
0.00369913
0.00366901
7.22179e-05
0.00027812
0.000507087
0.000711856
0.000886485
0.00103496
0.00116082
0.00126787
0.00135998
0.00144042
0.00151201
0.00157708
0.00163763
0.00169528
0.00175136
0.00180693
0.00186278
0.00191952
0.00197755
0.00203712
0.00209838
0.00216134
0.00222597
0.00229217
0.00235981
0.00242873
0.00249876
0.00256977
0.00264159
0.00271408
0.0027871
0.00286052
0.00293417
0.00300795
0.00308175
0.00315549
0.00322909
0.00330247
0.00337557
0.00344832
0.00352069
0.00359264
0.00366417
0.00373525
0.00380589
0.00387609
0.00394585
0.0040152
0.00408415
0.00415272
0.00422093
0.00428885
0.00435653
0.00442399
0.00449126
0.00455835
0.0046253
0.00469211
0.0047588
0.00482538
0.00489184
0.00495817
0.00502435
0.00509034
0.0051561
0.00522158
0.00528671
0.00535141
0.00541559
0.00547914
0.00554196
0.00560392
0.00566489
0.00572472
0.00578326
0.00584036
0.00589586
0.00594959
0.00600139
0.00605111
0.00609858