/*--------------------------------*- C++ -*----------------------------------*\
  =========                 |
  \\      /  F ield         | OpenFOAM: The Open Source CFD Toolbox
   \\    /   O peration     | Website:  https://openfoam.org
    \\  /    A nd           | Version:  6
     \\/     M anipulation  |
\*---------------------------------------------------------------------------*/
FoamFile
{
    version     2.0;
    format      ascii;
    class       volScalarField;
    location    "100";
    object      p;
}
// * * * * * * * * * * * * * * * * * * * * * * * * * * * * * * * * * * * * * //

dimensions      [0 2 -2 0 0 0 0];

internalField   nonuniform List<scalar> 
12225
(
-2.14435
-4.33275
-5.43207
-5.75177
-5.93183
-6.09926
-6.22884
-6.32146
-6.39473
-6.4577
-6.51204
-6.5594
-6.59877
-6.62992
-6.65118
-6.64984
-6.64386
-6.49284
-5.30785
-6.07602
-6.23586
-6.14264
-6.12892
-6.19522
-6.27076
-6.33397
-6.39029
-6.44341
-6.49248
-6.53607
-6.57394
-6.60465
-6.62814
-6.63399
-6.64316
-6.59526
-5.70902
-5.69377
-5.82045
-5.89786
-5.9916
-6.11025
-6.21546
-6.29782
-6.36643
-6.42763
-6.48242
-6.53037
-6.57217
-6.60689
-6.63559
-6.6523
-6.67694
-6.6882
-5.58709
-5.52995
-5.77085
-5.92828
-6.02887
-6.13356
-6.22929
-6.30692
-6.37259
-6.43175
-6.48532
-6.5329
-6.57517
-6.61167
-6.64403
-6.67046
-6.70636
-6.75103
-5.5768
-5.601
-5.82841
-5.9691
-6.05157
-6.14213
-6.23148
-6.30688
-6.37152
-6.43007
-6.48359
-6.53181
-6.57544
-6.61464
-6.65138
-6.68646
-6.73121
-6.79075
-5.63484
-5.68356
-5.8572
-5.98023
-6.06064
-6.14705
-6.23331
-6.30763
-6.37189
-6.43023
-6.48391
-6.53291
-6.57797
-6.61977
-6.66043
-6.70197
-6.75252
-6.81757
-5.69528
-5.73931
-5.87387
-5.98935
-6.07207
-6.15487
-6.2371
-6.30972
-6.37333
-6.43135
-6.48511
-6.53482
-6.58124
-6.62536
-6.66926
-6.71535
-6.76924
-6.83505
-5.74895
-5.78637
-5.89574
-6.00325
-6.08531
-6.16364
-6.2415
-6.31217
-6.37504
-6.4327
-6.48651
-6.53688
-6.58454
-6.63062
-6.67704
-6.72604
-6.78135
-6.84542
-5.79885
-5.83177
-5.92214
-6.01938
-6.09859
-6.1728
-6.24657
-6.31512
-6.37709
-6.43429
-6.48808
-6.53896
-6.58762
-6.63521
-6.68335
-6.73388
-6.78916
-6.85032
-5.84611
-5.87516
-5.95017
-6.03672
-6.11215
-6.18268
-6.25259
-6.31877
-6.37959
-6.4362
-6.48982
-6.54099
-6.59035
-6.63891
-6.688
-6.73897
-6.79322
-6.851
-5.89067
-5.91598
-5.97872
-6.05532
-6.12632
-6.19328
-6.25952
-6.32315
-6.38261
-6.43848
-6.49175
-6.54296
-6.59266
-6.64167
-6.69102
-6.74161
-6.79421
-6.84859
-5.92896
-5.95112
-6.00491
-6.07326
-6.1398
-6.20347
-6.26651
-6.32776
-6.3858
-6.44082
-6.49358
-6.54459
-6.59426
-6.64324
-6.6923
-6.74202
-6.79281
-6.84421
-5.96437
-5.98391
-6.03039
-6.09139
-6.15341
-6.21383
-6.27385
-6.33275
-6.38927
-6.44332
-6.49541
-6.54599
-6.59537
-6.64402
-6.69242
-6.74096
-6.7898
-6.83845
-6.00156
-6.01859
-6.05835
-6.11207
-6.16907
-6.22585
-6.2826
-6.33885
-6.39356
-6.44635
-6.49749
-6.5473
-6.59604
-6.64396
-6.69131
-6.73824
-6.7848
-6.83053
-6.0393
-6.05397
-6.08779
-6.1347
-6.18642
-6.23924
-6.29257
-6.34593
-6.3985
-6.44973
-6.49959
-6.54822
-6.59586
-6.64258
-6.68846
-6.73343
-6.77746
-6.82022
-6.07565
-6.08821
-6.11706
-6.15796
-6.20454
-6.25332
-6.3032
-6.35357
-6.40371
-6.45308
-6.50131
-6.54842
-6.59445
-6.63953
-6.68352
-6.72631
-6.7677
-6.80758
-6.10773
-6.11859
-6.14356
-6.17959
-6.22164
-6.26664
-6.31329
-6.36077
-6.4084
-6.45563
-6.50202
-6.54728
-6.59139
-6.63441
-6.67626
-6.71669
-6.75552
-6.79262
-6.13116
-6.14085
-6.16323
-6.19591
-6.23464
-6.27671
-6.32075
-6.36582
-6.41119
-6.45634
-6.50079
-6.54413
-6.58621
-6.62705
-6.66664
-6.70474
-6.74116
-6.77578
-6.13902
-6.14827
-6.16969
-6.20112
-6.23858
-6.27936
-6.32208
-6.36579
-6.40973
-6.45336
-6.49623
-6.53788
-6.57816
-6.61704
-6.65457
-6.69055
-6.72482
-6.75731
-6.12374
-6.13363
-6.15648
-6.18985
-6.22923
-6.27141
-6.31502
-6.35922
-6.4034
-6.44687
-6.48932
-6.53026
-6.5697
-6.60752
-6.64388
-6.6785
-6.71141
-6.74252
-6.09745
-6.10836
-6.1339
-6.17121
-6.21432
-6.25933
-6.305
-6.35089
-6.39619
-6.44035
-6.48294
-6.52388
-6.56304
-6.60054
-6.63624
-6.67021
-6.70224
-6.73268
-6.06264
-6.07457
-6.1042
-6.14806
-6.19667
-6.2451
-6.29345
-6.34176
-6.38895
-6.43421
-6.47737
-6.51855
-6.5578
-6.59516
-6.63057
-6.66405
-6.6956
-6.72551
-6.02237
-6.03439
-6.06911
-6.12264
-6.17853
-6.23091
-6.28225
-6.33321
-6.38233
-6.4288
-6.47275
-6.5144
-6.55394
-6.59129
-6.62658
-6.65974
-6.69104
-6.72065
-5.97887
-5.98997
-6.032
-6.09666
-6.15918
-6.21628
-6.27233
-6.32666
-6.37744
-6.42476
-6.46932
-6.51143
-6.55114
-6.58851
-6.62358
-6.65655
-6.68758
-6.717
-5.93207
-5.93769
-6.00063
-6.07907
-6.1413
-6.19995
-6.26154
-6.32038
-6.37337
-6.42183
-6.4672
-6.50985
-6.54979
-6.58713
-6.62207
-6.65486
-6.68569
-6.71502
-5.88885
-5.85264
-5.96243
-6.07368
-6.13623
-6.19183
-6.25443
-6.31467
-6.36837
-6.41745
-6.46348
-6.50664
-6.54684
-6.58429
-6.61926
-6.65204
-6.68288
-6.71215
-5.90313
-5.7443
-5.87345
-6.02779
-6.11827
-6.18994
-6.2592
-6.32057
-6.37383
-6.42246
-6.46804
-6.51066
-6.55023
-6.58704
-6.62139
-6.65363
-6.68404
-6.71302
-6.02635
-5.84608
-5.86052
-5.93285
-6.02157
-6.12114
-6.21217
-6.28638
-6.34852
-6.40398
-6.4546
-6.50072
-6.5428
-6.58142
-6.61703
-6.65017
-6.68137
-6.71147
-5.73374
-6.32491
-6.41404
-6.29002
-6.23599
-6.26348
-6.31082
-6.35451
-6.39649
-6.43897
-6.48075
-6.52043
-6.5577
-6.59258
-6.62504
-6.65535
-6.68387
-6.71256
-2.74442
-4.50783
-5.51277
-5.8122
-5.96166
-6.10558
-6.21998
-6.3014
-6.36605
-6.4232
-6.47471
-6.52107
-6.56307
-6.60145
-6.63662
-6.6685
-6.69709
-6.72082
-8.06454
-8.06258
-8.06072
-8.06259
-8.06625
-8.07073
-8.07614
-8.08209
-8.08814
-8.09397
-8.09937
-8.1041
-8.10922
-8.11546
-8.12225
-8.13044
-8.14245
-8.15792
-8.17626
-8.19546
-8.20977
-8.22085
-8.23881
-8.26325
-8.28996
-8.31922
-8.35111
-8.38544
-8.42213
-8.46084
-8.50136
-8.54323
-8.58614
-8.62958
-8.67321
-8.71654
-8.75923
-8.80086
-8.84115
-8.87976
-8.91649
-8.95111
-8.98348
-9.01343
-9.04088
-9.06575
-9.08799
-9.10756
-9.12442
-9.13858
-9.14998
-9.15873
-9.16476
-9.16816
-9.16886
-9.16701
-9.16253
-9.15556
-9.146
-9.13407
-9.11966
-9.10301
-9.08395
-9.06283
-9.03942
-9.01413
-8.98671
-8.95761
-8.92655
-8.89402
-8.85973
-8.82418
-8.78704
-8.74887
-8.7093
-8.66899
-8.62749
-8.58533
-8.54206
-8.49836
-8.45365
-8.40846
-8.36212
-8.31528
-8.26721
-8.21843
-8.16807
-8.11613
-8.06157
-8.00408
-7.94387
-7.88044
-7.81317
-7.74127
-7.66413
-7.58095
-7.49106
-7.3935
-7.28747
-7.17195
-7.04571
-6.90744
-6.75577
-6.5891
-6.40564
-6.20389
-5.9824
-5.74024
-5.47603
-5.18877
-4.87718
-4.54046
-4.17767
-3.78824
-3.37146
-2.92736
-2.45581
-1.95732
-1.43252
-0.882621
-0.308975
0.286648
0.902316
1.53553
2.18349
2.84289
3.5103
4.18205
4.85444
5.52372
6.18622
6.83842
7.47697
8.0988
8.70111
9.28148
9.83779
10.3683
10.8718
11.3474
11.7947
12.2137
12.6048
12.969
13.3074
13.6211
13.9108
14.177
14.4207
14.6428
14.8447
15.0276
15.1929
15.3419
15.4758
15.5959
15.7034
15.7993
15.8846
15.9604
16.0275
16.0868
16.1389
16.1847
16.2247
16.2597
16.2901
16.3165
16.3395
16.3598
16.3777
16.3941
16.4098
16.426
16.4447
16.4685
16.5044
16.5597
16.6623
16.8008
-8.06323
-8.06199
-8.06071
-8.06256
-8.06581
-8.06917
-8.07258
-8.07593
-8.07896
-8.08168
-8.08412
-8.08647
-8.08945
-8.09357
-8.09863
-8.10525
-8.11323
-8.1213
-8.12922
-8.13677
-8.14599
-8.16377
-8.18944
-8.21421
-8.2401
-8.26853
-8.29978
-8.33375
-8.37033
-8.40921
-8.4501
-8.49256
-8.53621
-8.58053
-8.62507
-8.66935
-8.71295
-8.75546
-8.79655
-8.83591
-8.8733
-8.90851
-8.94141
-8.97184
-8.99973
-9.025
-9.0476
-9.06752
-9.08469
-9.09914
-9.11085
-9.11986
-9.12614
-9.12974
-9.13065
-9.12895
-9.12459
-9.11768
-9.10819
-9.09623
-9.08178
-9.06497
-9.04577
-9.02436
-9.00069
-8.97499
-8.94719
-8.91754
-8.88598
-8.85277
-8.81787
-8.78157
-8.74376
-8.70476
-8.6645
-8.62332
-8.58106
-8.53801
-8.49406
-8.44953
-8.4042
-8.35833
-8.31166
-8.26445
-8.21632
-8.16748
-8.11748
-8.0661
-8.01249
-7.95662
-7.89829
-7.8371
-7.77232
-7.70322
-7.62912
-7.54926
-7.46292
-7.36922
-7.26709
-7.15513
-7.03244
-6.89782
-6.74997
-6.58735
-6.40864
-6.21238
-5.99729
-5.76186
-5.50501
-5.2256
-4.92257
-4.59465
-4.24089
-3.86064
-3.4535
-3.01908
-2.55738
-2.06861
-1.55348
-1.01302
-0.448497
0.138474
0.746081
1.37198
2.01344
2.66732
3.33025
3.9986
4.66873
5.33687
5.99935
6.65258
7.29313
7.91783
8.52382
9.10851
9.66971
10.2056
10.7149
11.1965
11.65
12.0752
12.4726
12.8425
13.1859
13.504
13.798
14.0687
14.317
14.5439
14.7506
14.9384
15.1084
15.262
15.4005
15.5249
15.6365
15.7364
15.8256
15.905
15.9755
16.038
16.0932
16.1418
16.1846
16.2221
16.2549
16.2836
16.3088
16.331
16.3508
16.3691
16.3865
16.4045
16.4248
16.45
16.4854
16.5362
16.6271
16.7408
-8.05664
-8.05738
-8.05787
-8.06036
-8.06336
-8.06568
-8.06728
-8.06832
-8.06888
-8.06902
-8.06895
-8.06904
-8.06988
-8.07184
-8.07493
-8.07955
-8.0859
-8.09344
-8.1019
-8.11115
-8.12192
-8.13655
-8.15623
-8.1789
-8.20462
-8.23353
-8.26552
-8.30027
-8.33748
-8.37675
-8.4177
-8.45988
-8.50289
-8.54627
-8.58966
-8.63264
-8.67488
-8.71604
-8.75584
-8.79403
-8.83039
-8.86472
-8.89688
-8.92674
-8.95419
-8.97914
-9.00153
-9.02131
-9.03844
-9.05291
-9.06467
-9.07377
-9.08016
-9.08388
-9.08491
-9.08331
-9.07906
-9.07222
-9.06278
-9.05083
-9.03636
-9.01947
-9.00017
-8.97858
-8.95471
-8.92871
-8.9006
-8.87054
-8.83858
-8.80486
-8.76947
-8.73257
-8.69421
-8.65457
-8.61375
-8.57191
-8.52908
-8.48541
-8.44095
-8.39586
-8.35012
-8.30382
-8.25694
-8.20954
-8.16147
-8.11275
-8.06318
-8.01239
-7.9599
-7.90547
-7.84909
-7.79028
-7.72824
-7.66243
-7.59202
-7.51639
-7.43457
-7.34577
-7.24875
-7.14236
-7.02546
-6.89686
-6.7553
-6.59929
-6.42764
-6.23892
-6.03191
-5.80502
-5.55732
-5.28745
-4.99431
-4.67656
-4.33342
-3.96398
-3.56792
-3.14475
-2.69447
-2.21714
-1.71339
-1.18409
-0.630515
-0.0540423
0.543548
1.1601
1.79298
2.43919
3.09546
3.75826
4.42399
5.08892
5.7494
6.40175
7.04258
7.66858
8.27686
8.86476
9.43005
9.97089
10.4859
10.9741
11.4349
11.8683
12.2743
12.6534
13.0064
13.3342
13.6376
13.9175
14.1746
14.4101
14.625
14.8206
14.9981
15.1588
15.3039
15.4347
15.5522
15.6577
15.752
15.8363
15.9113
15.978
16.0371
16.0895
16.1356
16.1763
16.2121
16.2436
16.2713
16.296
16.3181
16.3384
16.3579
16.3776
16.3995
16.4256
16.4604
16.5066
16.5825
16.6587
-8.04186
-8.04587
-8.04975
-8.05404
-8.05779
-8.06025
-8.06148
-8.06169
-8.06106
-8.05979
-8.05826
-8.05688
-8.0562
-8.05662
-8.05843
-8.06192
-8.0674
-8.07486
-8.0843
-8.09577
-8.10953
-8.12616
-8.14609
-8.16912
-8.19517
-8.22416
-8.25593
-8.2902
-8.32672
-8.3651
-8.40502
-8.44606
-8.48787
-8.53002
-8.57218
-8.61394
-8.65499
-8.69501
-8.73372
-8.77088
-8.80627
-8.83971
-8.87105
-8.90016
-8.92693
-8.95127
-8.9731
-8.99239
-9.00907
-9.02314
-9.03454
-9.0433
-9.04937
-9.05279
-9.05354
-9.05164
-9.0471
-9.03995
-9.03021
-9.01792
-9.00311
-8.98585
-8.96617
-8.94416
-8.91986
-8.89339
-8.86481
-8.83424
-8.80176
-8.76752
-8.7316
-8.69416
-8.6553
-8.61518
-8.57391
-8.53165
-8.48849
-8.44454
-8.3999
-8.35468
-8.30893
-8.26272
-8.21606
-8.16896
-8.12137
-8.07323
-8.02441
-7.9746
-7.92331
-7.87055
-7.81605
-7.75934
-7.69984
-7.63684
-7.56972
-7.49767
-7.41987
-7.33533
-7.24296
-7.14157
-7.02996
-6.90692
-6.77111
-6.6212
-6.45586
-6.27385
-6.07378
-5.85429
-5.61417
-5.35218
-5.06701
-4.7575
-4.42272
-4.06188
-3.67446
-3.26007
-2.81855
-2.35
-1.85488
-1.334
-0.788566
-0.21988
0.370333
0.979986
1.60653
2.24706
2.89838
3.55705
4.21948
4.88198
5.54087
6.19249
6.83336
7.46019
8.07002
8.66017
9.22844
9.77302
10.2925
10.7861
11.253
11.6931
12.1063
12.493
12.8537
13.1892
13.5001
13.7874
14.0517
14.2941
14.5157
14.7178
14.9015
15.0681
15.2189
15.355
15.4776
15.5877
15.6865
15.7749
15.8538
15.9241
15.9866
16.0421
16.0911
16.1345
16.1729
16.2067
16.2367
16.2633
16.2873
16.3093
16.3303
16.3512
16.3736
16.3995
16.4321
16.472
16.5311
16.5745
-8.0194
-8.02708
-8.03561
-8.04279
-8.0482
-8.05167
-8.05348
-8.05397
-8.05348
-8.0523
-8.05086
-8.04958
-8.049
-8.04953
-8.05159
-8.05545
-8.06139
-8.06955
-8.08006
-8.09302
-8.10862
-8.12701
-8.14832
-8.17246
-8.1994
-8.229
-8.26111
-8.29544
-8.33175
-8.36968
-8.40891
-8.44906
-8.4898
-8.53075
-8.57158
-8.61195
-8.65158
-8.69017
-8.72749
-8.76329
-8.79739
-8.8296
-8.85979
-8.88782
-8.91359
-8.937
-8.95798
-8.97647
-8.99241
-9.00578
-9.01652
-9.02465
-9.03012
-9.03294
-9.03309
-9.03061
-9.02547
-9.01771
-9.00735
-8.99443
-8.97896
-8.96103
-8.94065
-8.91793
-8.89291
-8.86571
-8.83638
-8.80507
-8.77185
-8.73687
-8.70024
-8.66212
-8.62264
-8.58195
-8.54019
-8.4975
-8.45404
-8.40991
-8.36523
-8.32012
-8.27465
-8.22888
-8.18285
-8.13656
-8.08997
-8.04302
-7.99559
-7.94737
-7.8981
-7.84737
-7.79541
-7.74137
-7.68486
-7.6251
-7.56159
-7.49341
-7.41984
-7.33977
-7.25221
-7.15596
-7.04975
-6.93241
-6.8024
-6.65859
-6.49942
-6.32387
-6.13028
-5.91757
-5.68414
-5.429
-5.15057
-4.84795
-4.51991
-4.16593
-3.7852
-3.37746
-2.9423
-2.47995
-1.99068
-1.47536
-0.934992
-0.370947
0.215147
0.82116
1.4446
2.0826
2.73197
3.38933
4.05102
4.71343
5.37274
6.02535
6.66766
7.29644
7.90862
8.50162
9.0732
9.62161
10.1454
10.6437
11.1156
11.5609
11.9796
12.3718
12.7381
13.079
13.3952
13.6876
13.957
14.2043
14.4308
14.6375
14.8258
14.9968
15.1517
15.2918
15.4182
15.532
15.6342
15.7258
15.8077
15.8808
15.9459
16.0037
16.055
16.1004
16.1407
16.1763
16.2079
16.236
16.2613
16.2844
16.3061
16.3274
16.3496
16.3741
16.4031
16.4356
16.4793
16.4965
-7.99294
-8.00434
-8.01824
-8.02895
-8.03666
-8.04187
-8.04504
-8.04664
-8.04716
-8.04698
-8.04657
-8.04636
-8.04687
-8.04851
-8.05172
-8.05679
-8.06401
-8.07352
-8.08549
-8.09999
-8.11713
-8.13696
-8.15952
-8.18472
-8.21251
-8.2427
-8.27512
-8.30949
-8.34555
-8.38297
-8.42146
-8.46066
-8.50027
-8.53997
-8.57945
-8.61841
-8.6566
-8.69375
-8.72964
-8.76405
-8.7968
-8.82773
-8.85669
-8.88356
-8.90823
-8.9306
-8.95059
-8.96815
-8.9832
-8.99571
-9.00563
-9.01294
-9.01761
-9.01964
-9.01899
-9.0157
-9.00974
-9.00116
-8.98993
-8.97613
-8.95977
-8.94092
-8.9196
-8.89592
-8.86993
-8.84175
-8.81145
-8.77916
-8.74498
-8.70907
-8.67155
-8.63259
-8.59233
-8.55094
-8.50857
-8.46541
-8.42158
-8.37726
-8.33256
-8.28762
-8.24253
-8.19737
-8.15219
-8.10699
-8.06175
-8.0164
-7.97084
-7.92483
-7.87784
-7.83013
-7.78108
-7.73046
-7.6775
-7.6217
-7.56232
-7.49864
-7.42975
-7.35468
-7.27238
-7.18165
-7.08128
-6.96985
-6.84605
-6.70845
-6.55578
-6.38667
-6.19976
-5.99361
-5.76684
-5.51811
-5.24617
-4.94987
-4.62819
-4.2803
-3.90549
-3.50327
-3.07335
-2.61583
-2.13102
-1.61964
-1.08264
-0.52135
0.0625729
0.667
1.28945
1.92702
2.57656
3.23462
3.89757
4.56168
5.22315
5.87829
6.52351
7.15553
7.77129
8.3682
8.94403
9.49693
10.0254
10.5284
11.0052
11.4554
11.8788
12.2757
12.6465
12.9917
13.3121
13.6085
13.8817
14.1329
14.363
14.5733
14.765
14.9393
15.0975
15.2407
15.3701
15.4867
15.5916
15.6858
15.7701
15.8455
15.9127
15.9725
16.0256
16.0726
16.1143
16.1513
16.1841
16.2132
16.2394
16.2631
16.2851
16.3062
16.3274
16.3496
16.3743
16.3991
16.4296
16.4258
-7.96679
-7.98149
-8.00048
-8.01466
-8.02485
-8.03217
-8.03719
-8.04045
-8.04253
-8.0439
-8.04505
-8.04645
-8.04857
-8.05184
-8.05666
-8.06332
-8.07213
-8.08322
-8.09676
-8.11281
-8.13143
-8.1526
-8.17632
-8.20246
-8.23093
-8.26154
-8.29411
-8.32836
-8.36407
-8.40092
-8.43864
-8.47692
-8.51548
-8.554
-8.59224
-8.6299
-8.66676
-8.70255
-8.7371
-8.77018
-8.80164
-8.83131
-8.85906
-8.88475
-8.90829
-8.92958
-8.94853
-8.96508
-8.97914
-8.99069
-8.99966
-9.00604
-9.00977
-9.01085
-9.00925
-9.00498
-8.99801
-8.98839
-8.97611
-8.96122
-8.94373
-8.92373
-8.90124
-8.87637
-8.84918
-8.81979
-8.78828
-8.75481
-8.71947
-8.68244
-8.64386
-8.6039
-8.56272
-8.52052
-8.47747
-8.43375
-8.38954
-8.34501
-8.3003
-8.25558
-8.21094
-8.1665
-8.12231
-8.07839
-8.03472
-7.99127
-7.94791
-7.90434
-7.8604
-7.81571
-7.77028
-7.72353
-7.67468
-7.62333
-7.56862
-7.50992
-7.4462
-7.37659
-7.29997
-7.21513
-7.12089
-7.01564
-6.89824
-6.76701
-6.62096
-6.45835
-6.27808
-6.0784
-5.8582
-5.61577
-5.35014
-5.05988
-4.74422
-4.40191
-4.03243
-3.63504
-3.20965
-2.75613
-2.2749
-1.76643
-1.23174
-0.672039
-0.0890922
0.51501
1.13774
1.7762
2.42719
3.08721
3.75262
4.41957
5.08431
5.74299
6.39212
7.02829
7.64853
8.25012
8.83078
9.38861
9.92205
10.43
10.9116
11.3664
11.7943
12.1955
12.5703
12.9193
13.2433
13.5431
13.8196
14.0739
14.307
14.5203
14.7147
14.8918
15.0525
15.1982
15.33
15.4489
15.556
15.6523
15.7387
15.816
15.885
15.9464
16.001
16.0494
16.0924
16.1304
16.1641
16.194
16.2206
16.2446
16.2664
16.2869
16.3066
16.3261
16.3461
16.3634
16.3823
16.3618
-7.9445
-7.96191
-7.9851
-8.00224
-8.01473
-8.02416
-8.03116
-8.03627
-8.04015
-8.0433
-8.04627
-8.04948
-8.05343
-8.05848
-8.06505
-8.0734
-8.08383
-8.09646
-8.11146
-8.12886
-8.14872
-8.17098
-8.19561
-8.22247
-8.25145
-8.28234
-8.31495
-8.34904
-8.38437
-8.42066
-8.45766
-8.49507
-8.53264
-8.57009
-8.60719
-8.64365
-8.67928
-8.71384
-8.74715
-8.779
-8.80926
-8.83775
-8.86435
-8.88894
-8.91139
-8.93162
-8.94954
-8.96507
-8.97813
-8.98869
-8.99666
-9.00203
-9.00473
-9.00477
-9.00209
-8.99671
-8.9886
-8.97779
-8.96427
-8.94811
-8.92931
-8.90796
-8.88409
-8.85781
-8.8292
-8.79838
-8.76546
-8.73059
-8.69389
-8.65556
-8.61573
-8.57463
-8.53241
-8.4893
-8.44548
-8.40117
-8.35656
-8.31183
-8.26717
-8.22274
-8.17867
-8.13509
-8.09206
-8.04962
-8.00778
-7.96648
-7.9256
-7.88494
-7.8441
-7.80317
-7.76169
-7.71913
-7.67492
-7.62838
-7.57887
-7.52553
-7.46749
-7.40374
-7.33318
-7.25464
-7.1667
-7.068
-6.95704
-6.83248
-6.69292
-6.53699
-6.36319
-6.17007
-5.9562
-5.72012
-5.46047
-5.17608
-4.86587
-4.52876
-4.16397
-3.77092
-3.34936
-2.8992
-2.4207
-1.91432
-1.381
-0.822005
-0.239081
0.365642
0.989599
1.62988
2.28323
2.9461
3.61478
4.28541
4.95415
5.61717
6.2709
6.91192
7.53714
8.14383
8.72961
9.29254
9.83099
10.3438
10.83
11.2893
11.7215
12.1266
12.5051
12.8576
13.1848
13.4876
13.767
14.0239
14.2597
14.4753
14.6722
14.8514
15.0144
15.1621
15.2959
15.4167
15.5256
15.6237
15.7117
15.7906
15.8612
15.9241
15.98
16.0297
16.0737
16.1126
16.147
16.1774
16.2043
16.2283
16.2497
16.2692
16.2871
16.3036
16.3187
16.3289
16.338
16.3039
-7.92851
-7.94793
-7.97405
-7.99335
-8.00769
-8.01897
-8.02778
-8.03467
-8.04031
-8.04524
-8.05
-8.05501
-8.06073
-8.06752
-8.07576
-8.08568
-8.09757
-8.11155
-8.12779
-8.14628
-8.16709
-8.19015
-8.21541
-8.24271
-8.27196
-8.30293
-8.33545
-8.36927
-8.40418
-8.4399
-8.4762
-8.5128
-8.54948
-8.58595
-8.62202
-8.65742
-8.69197
-8.72543
-8.75765
-8.78842
-8.81762
-8.84506
-8.87063
-8.8942
-8.91567
-8.93492
-8.95187
-8.96642
-8.97852
-8.98808
-8.99504
-8.99938
-9.00102
-8.99994
-8.99611
-8.98952
-8.98015
-8.96802
-8.95313
-8.93553
-8.91524
-8.89235
-8.86691
-8.83903
-8.80879
-8.77634
-8.74179
-8.70532
-8.66706
-8.62723
-8.58601
-8.5436
-8.50021
-8.45608
-8.41142
-8.36646
-8.32143
-8.27653
-8.23196
-8.18791
-8.14453
-8.10196
-8.06028
-8.01955
-7.97977
-7.9409
-7.90284
-7.86533
-7.82825
-7.7911
-7.75404
-7.71611
-7.67689
-7.63561
-7.59167
-7.54413
-7.49215
-7.4347
-7.37058
-7.29865
-7.2173
-7.12533
-7.021
-6.90325
-6.77033
-6.62118
-6.45391
-6.26738
-6.05973
-5.82983
-5.57594
-5.29715
-4.99199
-4.65965
-4.29905
-3.90983
-3.49148
-3.04404
-2.56751
-2.06249
-1.52975
-0.970699
-0.38703
0.21905
0.844963
1.48777
2.14413
2.81052
3.48309
4.15806
4.83143
5.49943
6.1583
6.80463
7.43522
8.04727
8.63836
9.20643
9.74988
10.2674
10.7582
11.2217
11.6578
12.0666
12.4486
12.8042
13.1343
13.4398
13.7217
13.981
14.2189
14.4367
14.6355
14.8167
14.9815
15.131
15.2664
15.3889
15.4994
15.5989
15.6883
15.7686
15.8404
15.9046
15.9617
16.0124
16.0574
16.0971
16.1322
16.163
16.19
16.2137
16.2346
16.2528
16.2687
16.282
16.2925
16.2959
16.2965
16.2514
-7.92018
-7.94075
-7.96837
-7.98891
-8.0045
-8.01716
-8.02743
-8.03582
-8.04299
-8.04949
-8.05584
-8.06243
-8.06973
-8.07802
-8.08769
-8.09894
-8.11205
-8.1271
-8.14427
-8.16356
-8.18502
-8.20856
-8.23416
-8.26165
-8.29093
-8.32179
-8.35406
-8.3875
-8.42192
-8.45704
-8.49265
-8.52849
-8.56435
-8.59996
-8.63513
-8.66961
-8.70323
-8.73577
-8.76707
-8.79692
-8.82521
-8.85176
-8.87646
-8.89916
-8.91976
-8.93814
-8.9542
-8.96787
-8.97904
-8.98765
-8.99363
-8.99693
-8.99747
-8.99525
-8.99019
-8.98231
-8.97157
-8.958
-8.94159
-8.9224
-8.90046
-8.87585
-8.84864
-8.81896
-8.78689
-8.7526
-8.71622
-8.67794
-8.63794
-8.59644
-8.55363
-8.50977
-8.46508
-8.41982
-8.37423
-8.32858
-8.28311
-8.23805
-8.19362
-8.15003
-8.10746
-8.06606
-8.02592
-7.98712
-7.94966
-7.9135
-7.87856
-7.84463
-7.81127
-7.77869
-7.74614
-7.7133
-7.67937
-7.64378
-7.60573
-7.5644
-7.51884
-7.468
-7.4107
-7.34554
-7.27111
-7.1859
-7.08856
-6.97762
-6.85168
-6.70921
-6.54867
-6.36849
-6.16712
-5.94306
-5.69486
-5.42121
-5.12088
-4.79277
-4.43604
-4.0501
-3.63452
-3.18916
-2.71408
-2.20977
-1.67711
-1.11747
-0.532575
0.0753367
0.703664
1.34941
2.00927
2.67964
3.3567
4.03653
4.71512
5.38856
6.05304
6.705
7.34122
7.95879
8.55524
9.12846
9.67679
10.1989
10.694
11.1616
11.6014
12.0136
12.3987
12.7572
13.0899
13.3978
13.6818
13.9432
14.1831
14.4027
14.6033
14.7862
14.9525
15.1036
15.2405
15.3643
15.4761
15.5769
15.6676
15.7491
15.8221
15.8873
15.9455
15.9972
16.043
16.0834
16.119
16.1501
16.1772
16.2006
16.2206
16.2375
16.2512
16.2614
16.2673
16.2647
16.2579
16.204
-7.91968
-7.94056
-7.96825
-7.98916
-8.00537
-8.01884
-8.03008
-8.03955
-8.04788
-8.05559
-8.0632
-8.07106
-8.07959
-8.08907
-8.09984
-8.1121
-8.12608
-8.14189
-8.15967
-8.17943
-8.20123
-8.22497
-8.25063
-8.27806
-8.30716
-8.33773
-8.36961
-8.40258
-8.43644
-8.47094
-8.50589
-8.54102
-8.57614
-8.61099
-8.6454
-8.67911
-8.71197
-8.74375
-8.7743
-8.80342
-8.83098
-8.85681
-8.88079
-8.90276
-8.92263
-8.94027
-8.95557
-8.96843
-8.97875
-8.98647
-8.99148
-8.99374
-8.99318
-8.98975
-8.98341
-8.97415
-8.96193
-8.94679
-8.92871
-8.90777
-8.88399
-8.85748
-8.8283
-8.7966
-8.7625
-8.72616
-8.68775
-8.64747
-8.60553
-8.56217
-8.51763
-8.47217
-8.42605
-8.37957
-8.33299
-8.2866
-8.24067
-8.19548
-8.15125
-8.10822
-8.06658
-8.0265
-7.9881
-7.95144
-7.91654
-7.88338
-7.85185
-7.82167
-7.79272
-7.76459
-7.73712
-7.70964
-7.68135
-7.65172
-7.61989
-7.58504
-7.54621
-7.50221
-7.45191
-7.39366
-7.32628
-7.248
-7.15776
-7.05373
-6.93478
-6.79896
-6.64505
-6.47107
-6.27581
-6.05736
-5.81458
-5.54578
-5.24997
-4.9258
-4.57264
-4.18963
-3.7765
-3.33284
-2.85889
-2.35499
-1.82218
-1.26172
-0.675396
-0.0653956
0.565661
1.21474
1.87856
2.5534
3.23545
3.92059
4.60484
5.28405
5.9544
6.6122
7.25415
7.87729
8.47906
9.05736
9.61043
10.137
10.6362
11.1075
11.5507
11.9661
12.354
12.7151
13.0502
13.3603
13.6463
13.9095
14.1511
14.3724
14.5745
14.7588
14.9266
15.079
15.2172
15.3423
15.4553
15.5573
15.649
15.7315
15.8055
15.8718
15.9308
15.9834
16.03
16.0711
16.1071
16.1384
16.1654
16.1884
16.2076
16.2231
16.2346
16.2417
16.2434
16.2353
16.2221
16.1609
-7.92639
-7.94679
-7.97339
-7.99387
-8.01006
-8.02374
-8.03539
-8.04543
-8.05446
-8.06296
-8.0714
-8.08012
-8.08949
-8.09977
-8.11128
-8.12417
-8.13869
-8.1549
-8.17297
-8.19289
-8.21472
-8.23839
-8.26386
-8.29101
-8.31975
-8.34987
-8.38124
-8.41364
-8.4469
-8.48078
-8.51508
-8.54956
-8.58402
-8.61823
-8.65199
-8.68508
-8.71734
-8.74853
-8.77851
-8.80708
-8.8341
-8.85939
-8.88282
-8.90424
-8.92353
-8.94054
-8.95518
-8.96732
-8.97686
-8.98372
-8.98778
-8.989
-8.98729
-8.98262
-8.97492
-8.96417
-8.95036
-8.93349
-8.91359
-8.89071
-8.86491
-8.83629
-8.80494
-8.77101
-8.73465
-8.69605
-8.6554
-8.61293
-8.56886
-8.52347
-8.47702
-8.42983
-8.38217
-8.33437
-8.28674
-8.23959
-8.19323
-8.14792
-8.10397
-8.0616
-8.02104
-7.98245
-7.94597
-7.91167
-7.87958
-7.84967
-7.82181
-7.79578
-7.77125
-7.74819
-7.726
-7.70407
-7.68174
-7.65827
-7.63291
-7.60477
-7.57278
-7.53584
-7.49249
-7.44139
-7.38096
-7.30986
-7.22655
-7.12958
-7.01734
-6.88826
-6.74065
-6.57292
-6.38341
-6.17054
-5.93283
-5.66887
-5.37737
-5.05718
-4.70744
-4.32739
-3.91655
-3.47458
-3.0016
-2.49806
-1.9649
-1.40341
-0.815331
-0.202866
0.431329
1.08421
1.7524
2.43216
3.11952
3.81033
4.50043
5.18563
5.86197
6.52568
7.17335
7.80198
8.40897
8.99214
9.54974
10.0805
10.5835
11.0583
11.5047
11.923
12.3135
12.6769
13.0141
13.326
13.6139
13.8787
14.1219
14.3446
14.5481
14.7337
14.9028
15.0564
15.1958
15.322
15.4361
15.5391
15.632
15.7154
15.7904
15.8575
15.9175
15.9708
16.0181
16.0597
16.0961
16.1276
16.1545
16.177
16.1953
16.2094
16.2188
16.2229
16.2206
16.2076
16.1889
16.1218
-7.93916
-7.95844
-7.98309
-8.00244
-8.01801
-8.0313
-8.04279
-8.0529
-8.06213
-8.07093
-8.07974
-8.08886
-8.09864
-8.10931
-8.12114
-8.13429
-8.14898
-8.16527
-8.18331
-8.2031
-8.2247
-8.24803
-8.27311
-8.29978
-8.32798
-8.35752
-8.38829
-8.42007
-8.4527
-8.48595
-8.51964
-8.55353
-8.58742
-8.62108
-8.65434
-8.68695
-8.71876
-8.74953
-8.77911
-8.8073
-8.83394
-8.85886
-8.8819
-8.90291
-8.92174
-8.93825
-8.95232
-8.96382
-8.97263
-8.97864
-8.98176
-8.98192
-8.97901
-8.97301
-8.96383
-8.95147
-8.9359
-8.91715
-8.89522
-8.87021
-8.84216
-8.81121
-8.77745
-8.74106
-8.7022
-8.6611
-8.61796
-8.57305
-8.52663
-8.479
-8.43047
-8.38137
-8.33202
-8.2828
-8.23403
-8.18607
-8.13923
-8.09385
-8.05022
-8.0086
-7.96923
-7.93228
-7.89791
-7.86619
-7.83714
-7.81073
-7.78682
-7.76517
-7.74559
-7.72758
-7.71103
-7.69496
-7.6788
-7.66176
-7.64308
-7.62184
-7.59688
-7.5671
-7.53087
-7.487
-7.43368
-7.3698
-7.2935
-7.20359
-7.09809
-6.97572
-6.83443
-6.67292
-6.48918
-6.28194
-6.04935
-5.79023
-5.503
-5.18676
-4.84034
-4.46314
-4.05438
-3.6139
-3.14161
-2.63812
-2.10423
-1.54132
-0.951084
-0.33576
0.301955
0.958994
1.63185
2.31678
3.0096
3.70618
4.40217
5.09336
5.77562
6.44514
7.09841
7.73234
8.34432
8.93209
9.49396
10.0286
10.5351
11.0131
11.4624
11.8832
12.2761
12.6416
12.9807
13.2943
13.5837
13.8501
14.0946
14.3186
14.5234
14.7102
14.8804
15.0351
15.1756
15.3029
15.4181
15.5221
15.6159
15.7004
15.7762
15.8442
15.905
15.9591
16.007
16.0491
16.0858
16.1174
16.1442
16.1662
16.1837
16.1963
16.2037
16.205
16.1991
16.1817
16.1582
16.0863
-7.95669
-7.97439
-7.99654
-8.01421
-8.0286
-8.04095
-8.05175
-8.06137
-8.07027
-8.07886
-8.08754
-8.09658
-8.10631
-8.11692
-8.12868
-8.1417
-8.1562
-8.17222
-8.18992
-8.20929
-8.2304
-8.25318
-8.27765
-8.30368
-8.33121
-8.36008
-8.39018
-8.42129
-8.45328
-8.4859
-8.51899
-8.55232
-8.58571
-8.61892
-8.65178
-8.68405
-8.71555
-8.74605
-8.77539
-8.80334
-8.82977
-8.85444
-8.87723
-8.89793
-8.9164
-8.93248
-8.94603
-8.9569
-8.96497
-8.97012
-8.97222
-8.9712
-8.96696
-8.95944
-8.94859
-8.9344
-8.91684
-8.89595
-8.87174
-8.84431
-8.81373
-8.78013
-8.74363
-8.70445
-8.66277
-8.61883
-8.5729
-8.52526
-8.4762
-8.42608
-8.37523
-8.32403
-8.27285
-8.22208
-8.17209
-8.12328
-8.07598
-8.03058
-7.98735
-7.94663
-7.90862
-7.87355
-7.84153
-7.81268
-7.78699
-7.76442
-7.7448
-7.72798
-7.7134
-7.70123
-7.69051
-7.68073
-7.67107
-7.66083
-7.64916
-7.63506
-7.61747
-7.59497
-7.56623
-7.52961
-7.48374
-7.42704
-7.35803
-7.27506
-7.17653
-7.06071
-6.92592
-6.77043
-6.59256
-6.39068
-6.16318
-5.90858
-5.62554
-5.31292
-4.96965
-4.59488
-4.18791
-3.74845
-3.27653
-2.77266
-2.23767
-1.67292
-1.08017
-0.461684
0.179816
0.841152
1.51879
2.20887
2.90717
3.60939
4.31114
5.00807
5.69599
6.37098
7.02946
7.66831
8.28484
8.87681
9.4425
9.9806
10.4903
10.9711
11.4229
11.846
12.2409
12.6082
12.949
13.2642
13.555
13.8226
14.0684
14.2936
14.4995
14.6875
14.8588
15.0146
15.1562
15.2845
15.4007
15.5057
15.6005
15.6859
15.7627
15.8315
15.8931
15.9479
15.9964
16.039
16.076
16.1077
16.1343
16.1559
16.1725
16.1838
16.1893
16.1879
16.1788
16.1575
16.1298
16.054
-7.97765
-7.99351
-8.01283
-8.02841
-8.04115
-8.05207
-8.06164
-8.07022
-8.07825
-8.08609
-8.09411
-8.10256
-8.11175
-8.12184
-8.13308
-8.14556
-8.15948
-8.17489
-8.19193
-8.21059
-8.23096
-8.25297
-8.27665
-8.30187
-8.32859
-8.35666
-8.38597
-8.41634
-8.44762
-8.47961
-8.51213
-8.54495
-8.5779
-8.61075
-8.64329
-8.6753
-8.7066
-8.73693
-8.76612
-8.79395
-8.82023
-8.84474
-8.86732
-8.88776
-8.90589
-8.92153
-8.93452
-8.94472
-8.95195
-8.95611
-8.95705
-8.95469
-8.94891
-8.93968
-8.92692
-8.91063
-8.89079
-8.86744
-8.8406
-8.81039
-8.77689
-8.74026
-8.70068
-8.65835
-8.61352
-8.56644
-8.51742
-8.46678
-8.41487
-8.36206
-8.30874
-8.25532
-8.20222
-8.14986
-8.0987
-8.04908
-8.00145
-7.95617
-7.91359
-7.87399
-7.83766
-7.80477
-7.77549
-7.74989
-7.72795
-7.70956
-7.69479
-7.68301
-7.67433
-7.66799
-7.6637
-7.66055
-7.65775
-7.65458
-7.6502
-7.64348
-7.6334
-7.61836
-7.59715
-7.5679
-7.52946
-7.47993
-7.41812
-7.34201
-7.25029
-7.14086
-7.01235
-6.86266
-6.69042
-6.49361
-6.27089
-6.0205
-5.74134
-5.43196
-5.09145
-4.71866
-4.31309
-3.87423
-3.40231
-2.89769
-2.36135
-1.79456
-1.19921
-0.577559
0.0676602
0.733181
1.41544
2.11043
2.81395
3.52148
4.22858
4.93076
5.62377
6.30361
6.96668
7.6098
8.23023
8.8258
9.39472
9.93576
10.4481
10.9313
11.3852
11.8103
12.2069
12.5758
12.918
13.2346
13.5266
13.7955
14.0424
14.2688
14.4758
14.6649
14.8373
14.9942
15.1368
15.2662
15.3834
15.4895
15.5853
15.6717
15.7494
15.8191
15.8815
15.937
15.9861
16.0292
16.0665
16.0983
16.1248
16.1459
16.1617
16.1718
16.1755
16.1718
16.1597
16.135
16.1037
16.0248
-8.00183
-8.01576
-8.0322
-8.0454
-8.05601
-8.06493
-8.07266
-8.07957
-8.08608
-8.09252
-8.09926
-8.10652
-8.11458
-8.12358
-8.13376
-8.14518
-8.15804
-8.17237
-8.18831
-8.20586
-8.2251
-8.24598
-8.26852
-8.29262
-8.31826
-8.34529
-8.37363
-8.40309
-8.43357
-8.46483
-8.49673
-8.52902
-8.56155
-8.59403
-8.62631
-8.65811
-8.68926
-8.71947
-8.74858
-8.77629
-8.80246
-8.8268
-8.84916
-8.86928
-8.88701
-8.90211
-8.91445
-8.92382
-8.93007
-8.93305
-8.93262
-8.92869
-8.92114
-8.90993
-8.89497
-8.87629
-8.85383
-8.82771
-8.79791
-8.76459
-8.72785
-8.6879
-8.64491
-8.59915
-8.55085
-8.50036
-8.448
-8.39417
-8.33922
-8.28361
-8.22774
-8.1721
-8.1171
-8.06328
-8.01101
-7.96078
-7.9131
-7.86818
-7.82661
-7.78847
-7.75427
-7.72396
-7.69792
-7.67596
-7.65825
-7.64476
-7.63507
-7.62918
-7.62643
-7.62663
-7.62904
-7.63279
-7.63716
-7.64133
-7.64436
-7.64524
-7.64262
-7.63521
-7.62135
-7.59958
-7.56828
-7.52596
-7.47094
-7.40164
-7.31627
-7.21313
-7.09041
-6.94637
-6.77924
-6.58728
-6.36884
-6.12243
-5.84667
-5.54025
-5.202
-4.83093
-4.42636
-3.98796
-3.51585
-3.0105
-2.47287
-1.90424
-1.30651
-0.681943
-0.0333292
0.636072
1.32255
2.02202
2.73016
3.44239
4.15409
4.86075
5.55803
6.24189
6.90871
7.55528
8.1789
8.77734
9.34888
9.89229
10.4068
10.8919
11.3476
11.7743
12.1724
12.5427
12.8862
13.204
13.4973
13.7673
14.0155
14.243
14.4512