/*--------------------------------*- C++ -*----------------------------------*\
  =========                 |
  \\      /  F ield         | OpenFOAM: The Open Source CFD Toolbox
   \\    /   O peration     | Website:  https://openfoam.org
    \\  /    A nd           | Version:  6
     \\/     M anipulation  |
\*---------------------------------------------------------------------------*/
FoamFile
{
    version     2.0;
    format      ascii;
    class       surfaceScalarField;
    location    "100";
    object      phi;
}
// * * * * * * * * * * * * * * * * * * * * * * * * * * * * * * * * * * * * * //

dimensions      [0 3 -1 0 0 0 0];

internalField   nonuniform List<scalar> 
24170
(
3.129e-06
5.94063e-08
3.0466e-06
8.23995e-08
2.97347e-06
7.31241e-08
2.90478e-06
6.86828e-08
2.84038e-06
6.44002e-08
2.78294e-06
5.74273e-08
2.73349e-06
4.9447e-08
2.69137e-06
4.21152e-08
2.65548e-06
3.58882e-08
2.62474e-06
3.07352e-08
2.59814e-06
2.65931e-08
2.57479e-06
2.33459e-08
2.55393e-06
2.08542e-08
2.53481e-06
1.911e-08
2.51674e-06
1.80666e-08
2.49766e-06
1.9079e-08
2.47732e-06
2.03381e-08
3.97701e-08
2.43755e-06
3.45306e-06
2.35928e-08
3.457e-06
7.84611e-08
3.45052e-06
7.95984e-08
3.43904e-06
8.01599e-08
3.42422e-06
7.92114e-08
3.40693e-06
7.47164e-08
3.38764e-06
6.87361e-08
3.36701e-06
6.27326e-08
3.34574e-06
5.71587e-08
3.32439e-06
5.20784e-08
3.30344e-06
4.75418e-08
3.28313e-06
4.36436e-08
3.26365e-06
4.03293e-08
3.24497e-06
3.77919e-08
3.22718e-06
3.58471e-08
3.21007e-06
3.61932e-08
3.19419e-06
3.62133e-08
4.86471e-08
3.18531e-06
3.66815e-06
1.79551e-08
3.67918e-06
6.74293e-08
3.68539e-06
7.33888e-08
3.68939e-06
7.61532e-08
3.69095e-06
7.76518e-08
3.68993e-06
7.57344e-08
3.68672e-06
7.1943e-08
3.68178e-06
6.76673e-08
3.6755e-06
6.34357e-08
3.66819e-06
5.93842e-08
3.66011e-06
5.56125e-08
3.6515e-06
5.22542e-08
3.6425e-06
4.93258e-08
3.63323e-06
4.7062e-08
3.62367e-06
4.53999e-08
3.61432e-06
4.55385e-08
3.60429e-06
4.6241e-08
5.25921e-08
3.60034e-06
3.92584e-06
1.75009e-08
3.9359e-06
5.73723e-08
3.94252e-06
6.67599e-08
3.94803e-06
7.06456e-08
3.9524e-06
7.3282e-08
3.95528e-06
7.2846e-08
3.95687e-06
7.03501e-08
3.9574e-06
6.71341e-08
3.95705e-06
6.37785e-08
3.95597e-06
6.04663e-08
3.95426e-06
5.7311e-08
3.95205e-06
5.44642e-08
3.94939e-06
5.1979e-08
3.94638e-06
5.00691e-08
3.94302e-06
4.87591e-08
3.9398e-06
4.87632e-08
3.93649e-06
4.95446e-08
5.26812e-08
3.9364e-06
4.20819e-06
1.6435e-08
4.21596e-06
4.9602e-08
4.22163e-06
6.10867e-08
4.2267e-06
6.55764e-08
4.23139e-06
6.85823e-08
4.2353e-06
6.89389e-08
4.23838e-06
6.72642e-08
4.24075e-06
6.47625e-08
4.2425e-06
6.20205e-08
4.24373e-06
5.92415e-08
4.24449e-06
5.65478e-08
4.24486e-06
5.40896e-08
4.24489e-06
5.19463e-08
4.24467e-06
5.02893e-08
4.24424e-06
4.91774e-08
4.24402e-06
4.8988e-08
4.24412e-06
4.94392e-08
5.08035e-08
4.246e-06
4.5107e-06
1.48192e-08
4.51686e-06
4.3445e-08
4.52208e-06
5.58651e-08
4.52685e-06
6.07984e-08
4.53151e-06
6.39215e-08
4.53569e-06
6.47575e-08
4.53928e-06
6.36756e-08
4.54233e-06
6.17085e-08
4.54491e-06
5.94313e-08
4.54709e-06
5.70604e-08
4.54891e-06
5.47276e-08
4.55042e-06
5.25731e-08
4.55168e-06
5.06887e-08
4.55276e-06
4.92015e-08
4.55377e-06
4.8168e-08
4.555e-06
4.77548e-08
4.55667e-06
4.77629e-08
4.80122e-08
4.55946e-06
4.83432e-06
1.32161e-08
4.8396e-06
3.81631e-08
4.8447e-06
5.07677e-08
4.84936e-06
5.61343e-08
4.85393e-06
5.93415e-08
4.85818e-06
6.05085e-08
4.86196e-06
5.98892e-08
4.86532e-06
5.83498e-08
4.8683e-06
5.64456e-08
4.87096e-06
5.44041e-08
4.87332e-06
5.23633e-08
4.87544e-06
5.04514e-08
4.87736e-06
4.87609e-08
4.87918e-06
4.73809e-08
4.881e-06
4.63487e-08
4.88304e-06
4.57087e-08
4.88551e-06
4.52907e-08
4.48063e-08
4.88872e-06
5.18104e-06
1.1757e-08
5.18573e-06
3.3473e-08
5.1907e-06
4.57934e-08
5.19531e-06
5.15232e-08
5.19984e-06
5.48094e-08
5.20413e-06
5.62175e-08
5.20803e-06
5.59775e-08
5.21158e-06
5.48015e-08
5.21481e-06
5.32142e-08
5.21776e-06
5.14521e-08
5.22046e-06
4.96556e-08
5.22297e-06
4.79419e-08
5.22533e-06
4.6396e-08
5.22763e-06
4.50786e-08
5.22997e-06
4.4005e-08
5.23252e-06
4.31559e-08
5.23543e-06
4.23814e-08
4.14171e-08
5.23882e-06
5.55268e-06
1.04091e-08
5.55686e-06
2.92916e-08
5.56164e-06
4.10129e-08
5.56621e-06
4.69537e-08
5.57072e-06
5.02969e-08
5.57505e-06
5.1878e-08
5.57908e-06
5.19526e-08
5.58278e-06
5.10958e-08
5.5862e-06
4.97882e-08
5.58938e-06
4.82718e-08
5.59235e-06
4.66859e-08
5.59515e-06
4.51379e-08
5.59784e-06
4.37021e-08
5.6005e-06
4.24195e-08
5.60321e-06
4.12887e-08
5.6061e-06
4.02638e-08
5.60926e-06
3.92187e-08
3.795e-08
5.61272e-06
5.95103e-06
9.15333e-09
5.95476e-06
2.55589e-08
5.95931e-06
3.64656e-08
5.96382e-06
4.2436e-08
5.96832e-06
4.57989e-08
5.9727e-06
4.74944e-08
5.97683e-06
4.78219e-08
5.98067e-06
4.72433e-08
5.98428e-06
4.61846e-08
5.98766e-06
4.48869e-08
5.99085e-06
4.34864e-08
5.99391e-06
4.20805e-08
5.99688e-06
4.07332e-08
5.99982e-06
3.94729e-08
6.00282e-06
3.8289e-08
6.00595e-06
3.71312e-08
6.00926e-06
3.59001e-08
3.44564e-08
6.01275e-06
6.37798e-06
7.98912e-09
6.38132e-06
2.22085e-08
6.38563e-06
3.21601e-08
6.39007e-06
3.79842e-08
6.39455e-06
4.13188e-08
6.39897e-06
4.30761e-08
6.40319e-06
4.35945e-08
6.40718e-06
4.32505e-08
6.41095e-06
4.24113e-08
6.41453e-06
4.13078e-08
6.41794e-06
4.00719e-08
6.42122e-06
3.87911e-08
6.42443e-06
3.75208e-08
6.42762e-06
3.6282e-08
6.43085e-06
3.50627e-08
6.43416e-06
3.38189e-08
6.43758e-06
3.24795e-08
3.09555e-08
6.44107e-06
5.74175e-06
7.06885e-09
5.74432e-06
1.96351e-08
5.74777e-06
2.8708e-08
5.75147e-06
3.42815e-08
5.75524e-06
3.75484e-08
5.75899e-06
3.9322e-08
5.76263e-06
3.99544e-08
5.7661e-06
3.97725e-08
5.76942e-06
3.90955e-08
5.77258e-06
3.81385e-08
5.77563e-06
3.70277e-08
5.77857e-06
3.58437e-08
5.78145e-06
3.46349e-08
5.78431e-06
3.34207e-08
5.78718e-06
3.21903e-08
5.79009e-06
3.09105e-08
5.79304e-06
2.95295e-08
2.79953e-08
5.796e-06
6.99913e-06
6.0924e-09
7.00185e-06
1.69095e-08
7.0056e-06
2.49592e-08
7.00974e-06
3.01379e-08
7.01403e-06
3.32574e-08
7.01835e-06
3.50011e-08
7.02258e-06
3.57149e-08
7.02667e-06
3.56784e-08
7.03061e-06
3.51586e-08
7.03439e-06
3.43493e-08
7.03805e-06
3.33679e-08
7.04161e-06
3.22872e-08
7.04509e-06
3.11505e-08
7.04853e-06
2.99756e-08
7.05196e-06
2.87581e-08
7.05539e-06
2.74759e-08
7.05882e-06
2.6099e-08
2.46002e-08
7.06221e-06
8.53187e-06
5.06616e-09
8.53472e-06
1.40581e-08
8.53874e-06
2.09394e-08
8.54332e-06
2.55567e-08
8.54815e-06
2.84228e-08
8.55308e-06
3.00691e-08
8.55797e-06
3.08141e-08
8.56276e-06
3.08898e-08
8.5674e-06
3.05123e-08
8.5719e-06
2.98452e-08
8.57627e-06
2.89958e-08
8.58053e-06
2.80268e-08
8.5847e-06
2.69784e-08
8.58881e-06
2.58677e-08
8.59286e-06
2.46981e-08
8.59688e-06
2.34598e-08
8.60083e-06
2.21403e-08
2.07311e-08
8.6047e-06
1.04003e-05
3.99843e-09
1.04032e-05
1.10991e-08
1.04075e-05
1.66669e-08
1.04125e-05
2.05425e-08
1.04179e-05
2.30212e-08
1.04235e-05
2.44822e-08
1.04291e-05
2.51876e-08
1.04347e-05
2.53273e-08
1.04401e-05
2.50634e-08
1.04454e-05
2.45287e-08
1.04506e-05
2.38105e-08
1.04557e-05
2.29667e-08
1.04606e-05
2.2029e-08
1.04655e-05
2.10188e-08
1.04702e-05
1.99428e-08
1.04749e-05
1.88043e-08
1.04794e-05
1.76015e-08
1.63386e-08
1.04838e-05
1.26779e-05
2.89226e-09
1.2681e-05
8.02528e-09
1.26855e-05
1.21366e-08
1.26909e-05
1.50832e-08
1.26969e-05
1.70186e-08
1.27032e-05
1.81812e-08
1.27097e-05
1.87626e-08
1.27161e-05
1.89019e-08
1.27224e-05
1.8715e-08
1.27287e-05
1.82952e-08
1.27348e-05
1.77118e-08
1.27407e-05
1.70084e-08
1.27465e-05
1.62149e-08
1.27522e-05
1.53484e-08
1.27577e-05
1.44222e-08
1.27631e-05
1.34434e-08
1.27682e-05
1.24205e-08
1.13591e-08
1.27732e-05
1.54543e-05
1.73559e-09
1.54576e-05
4.78804e-09
1.54624e-05
7.28673e-09
1.54684e-05
9.11363e-09
1.54751e-05
1.03332e-08
1.54822e-05
1.10689e-08
1.54895e-05
1.14302e-08
1.54969e-05
1.15007e-08
1.55043e-05
1.13486e-08
1.55115e-05
1.10296e-08
1.55186e-05
1.05865e-08
1.55256e-05
1.00497e-08
1.55324e-05
9.4394e-09
1.55389e-05
8.7704e-09
1.55453e-05
8.05395e-09
1.55515e-05
7.30021e-09
1.55574e-05
6.5187e-09
5.71638e-09
1.5563e-05
1.88389e-05
4.86616e-10
1.88424e-05
1.26208e-09
1.88477e-05
1.94144e-09
1.88544e-05
2.43931e-09
1.8862e-05
2.76364e-09
1.88701e-05
2.94049e-09
1.88785e-05
2.99065e-09
1.88871e-05
2.93357e-09
1.88957e-05
2.78696e-09
1.89041e-05
2.56679e-09
1.89124e-05
2.28513e-09
1.89205e-05
1.95281e-09
1.89284e-05
1.57772e-09
1.8936e-05
1.1672e-09
1.89433e-05
7.27446e-10
1.89503e-05
2.6561e-10
1.89571e-05
-2.10736e-10
-6.97661e-10
1.89635e-05
2.29648e-05
-9.58442e-10
2.29689e-05
-2.84078e-09
2.29751e-05
-4.31708e-09
2.2983e-05
-5.41474e-09
2.29919e-05
-6.16421e-09
2.30015e-05
-6.65619e-09
2.30115e-05
-6.97583e-09
2.30216e-05
-7.1817e-09
2.30317e-05
-7.30844e-09
2.30416e-05
-7.39182e-09
2.30514e-05
-7.45423e-09
2.30608e-05
-7.51445e-09
2.307e-05
-7.57789e-09
2.30788e-05
-7.65144e-09
2.30872e-05
-7.73415e-09
2.30953e-05
-7.82843e-09
2.3103e-05
-7.92899e-09
-8.0389e-09
2.31104e-05
1.68118e-05
-2.09422e-09
1.6815e-05
-6.03282e-09
1.68199e-05
-9.18683e-09
1.68259e-05
-1.14702e-08
1.68327e-05
-1.2955e-08
1.68399e-05
-1.38677e-08
1.68474e-05
-1.44008e-08
1.68548e-05
-1.46543e-08
1.68622e-05
-1.47129e-08
1.68695e-05
-1.46433e-08
1.68765e-05
-1.45043e-08
1.68833e-05
-1.43253e-08
1.68899e-05
-1.41314e-08
1.68962e-05
-1.39309e-08
1.69022e-05
-1.37359e-08
1.69079e-05
-1.35466e-08
1.69133e-05
-1.33674e-08
-1.31969e-08
1.69185e-05
1.46357e-05
-3.18408e-09
1.46388e-05
-9.13755e-09
1.46435e-05
-1.39329e-08
1.46493e-05
-1.7263e-08
1.46556e-05
-1.93058e-08
1.46623e-05
-2.05144e-08
1.4669e-05
-2.11565e-08
1.46758e-05
-2.13735e-08
1.46823e-05
-2.12927e-08
1.46887e-05
-2.10335e-08
1.46949e-05
-2.06693e-08
1.47008e-05
-2.02478e-08
1.47065e-05
-1.97963e-08
1.47119e-05
-1.93366e-08
1.4717e-05
-1.88797e-08
1.47219e-05
-1.84344e-08
1.47265e-05
-1.80014e-08
-1.75862e-08
1.47309e-05
1.27412e-05
-4.20412e-09
1.27443e-05
-1.22789e-08
1.27491e-05
-1.87904e-08
1.27548e-05
-2.29488e-08
1.27609e-05
-2.53394e-08
1.27671e-05
-2.67365e-08
1.27733e-05
-2.74044e-08
1.27794e-05
-2.74922e-08
1.27854e-05
-2.72079e-08
1.2791e-05
-2.67164e-08
1.27965e-05
-2.61075e-08
1.28017e-05
-2.54342e-08
1.28066e-05
-2.473e-08
1.28113e-05
-2.40225e-08
1.28157e-05
-2.33233e-08
1.28199e-05
-2.26441e-08
1.28239e-05
-2.19841e-08
-2.13495e-08
1.28277e-05
1.10918e-05
-5.05684e-09
1.1095e-05
-1.5512e-08
1.11002e-05
-2.39381e-08
1.11058e-05
-2.86067e-08
1.11116e-05
-3.11177e-08
1.11174e-05
-3.26019e-08
1.11232e-05
-3.31917e-08
1.11288e-05
-3.30696e-08
1.11341e-05
-3.25372e-08
1.11392e-05
-3.17918e-08
1.1144e-05
-3.09271e-08
1.11486e-05
-2.99977e-08
1.11529e-05
-2.9048e-08
1.1157e-05
-2.81026e-08
1.11608e-05
-2.71807e-08
1.11645e-05
-2.62857e-08
1.11679e-05
-2.54234e-08
-2.45931e-08
1.11712e-05
9.65583e-06
-5.67169e-09
9.65926e-06
-1.89449e-08
9.66462e-06
-2.93017e-08
9.67014e-06
-3.41314e-08
9.67573e-06
-3.67117e-08
9.68133e-06
-3.82028e-08
9.68671e-06
-3.85716e-08
9.69178e-06
-3.81485e-08
9.69658e-06
-3.73356e-08
9.70111e-06
-3.63276e-08
9.70539e-06
-3.52037e-08
9.70941e-06
-3.40227e-08
9.71319e-06
-3.28311e-08
9.71675e-06
-3.16597e-08
9.72009e-06
-3.05218e-08
9.72323e-06
-2.94254e-08
9.72617e-06
-2.83705e-08
-2.73557e-08
9.72893e-06
8.40533e-06
-5.64878e-09
8.40965e-06
-2.32678e-08
8.4149e-06
-3.45521e-08
8.41994e-06
-3.91818e-08
8.42534e-06
-4.21071e-08
8.43078e-06
-4.36457e-08
8.4359e-06
-4.36958e-08
8.44064e-06
-4.28956e-08
8.44505e-06
-4.17471e-08
8.44915e-06
-4.04273e-08
8.45295e-06
-3.90055e-08
8.45647e-06
-3.75436e-08
8.45973e-06
-3.60904e-08
8.46274e-06
-3.46743e-08
8.46553e-06
-3.33101e-08
8.4681e-06
-3.20038e-08
8.47049e-06
-3.07557e-08
-2.95657e-08
8.47269e-06
7.31455e-06
-2.9164e-09
7.3212e-06
-2.9918e-08
7.32676e-06
-4.01169e-08
7.33173e-06
-4.41528e-08
7.33715e-06
-4.75283e-08
7.3425e-06
-4.89949e-08
7.3474e-06
-4.86052e-08
7.35185e-06
-4.73419e-08
7.35586e-06
-4.57592e-08
7.35944e-06
-4.40164e-08
7.36263e-06
-4.21948e-08
7.36545e-06
-4.03638e-08
7.36794e-06
-3.8579e-08
7.37012e-06
-3.6863e-08
7.37204e-06
-3.5231e-08
7.37372e-06
-3.36857e-08
7.37519e-06
-3.22265e-08
-3.08459e-08
7.37647e-06
6.36245e-06
4.69474e-09
6.3719e-06
-3.93657e-08
6.37934e-06
-4.75556e-08
6.38599e-06
-5.08089e-08
6.39229e-06
-5.38302e-08
6.39762e-06
-5.43306e-08
6.40194e-06
-5.29251e-08
6.40545e-06
-5.08491e-08
6.40827e-06
-4.85861e-08
6.41048e-06
-4.62285e-08
6.41214e-06
-4.3851e-08
6.4133e-06
-4.15339e-08
6.41405e-06
-3.93256e-08
6.41443e-06
-3.72449e-08
6.4145e-06
-3.5305e-08
6.41432e-06
-3.35022e-08
6.41392e-06
-3.18375e-08
-3.02885e-08
6.41337e-06
5.54121e-06
8.95362e-09
5.55033e-06
-4.8494e-08
5.55836e-06
-5.55819e-08
5.56607e-06
-5.85234e-08
5.57254e-06
-6.03072e-08
5.57688e-06
-5.86734e-08
5.57914e-06
-5.51865e-08
5.57972e-06
-5.14293e-08
5.57898e-06
-4.78541e-08
5.57722e-06
-4.44636e-08
5.57464e-06
-4.12774e-08
5.57145e-06
-3.83383e-08
5.56777e-06
-3.56541e-08
5.56374e-06
-3.3216e-08
5.55945e-06
-3.10208e-08
5.555e-06
-2.90522e-08
5.55047e-06
-2.73095e-08
-2.57459e-08
5.54593e-06
4.86004e-06
-2.34837e-08
4.86539e-06
-5.38394e-08
4.86524e-06
-5.54412e-08
4.86218e-06
-5.54615e-08
4.85702e-06
-5.5148e-08
4.84953e-06
-5.11864e-08
4.83984e-06
-4.55059e-08
4.82846e-06
-4.00534e-08
4.81591e-06
-3.52989e-08
4.80264e-06
-3.12033e-08
4.78906e-06
-2.76977e-08
4.77544e-06
-2.47193e-08
4.76197e-06
-2.21876e-08
4.74879e-06
-2.00326e-08
4.73597e-06
-1.82076e-08
4.72359e-06
-1.66792e-08
4.71177e-06
-1.54848e-08
-1.51446e-08
4.70117e-06
4.17919e-06
4.12535e-06
4.06991e-06
4.01445e-06
3.9593e-06
3.90811e-06
3.86261e-06
3.82255e-06
3.78726e-06
3.75605e-06
3.72835e-06
3.70363e-06
3.68145e-06
3.66141e-06
3.6432e-06
3.62652e-06
3.61104e-06
3.59589e-06
2.06339e-08
-2.07528e-08
4.46394e-08
-2.41113e-08
6.40885e-08
-1.95661e-08
7.77807e-08
-1.37578e-08
8.50918e-08
-7.4104e-09
8.61084e-08
-1.07186e-09
8.11807e-08
4.83361e-09
7.1138e-08
9.99294e-09
5.67781e-08
1.42716e-08
3.89868e-08
1.77431e-08
1.80648e-08
2.0824e-08
-5.99477e-09
2.39902e-08
-3.06822e-08
2.44927e-08
-5.30119e-08
2.22196e-08
-7.64464e-08
2.32233e-08
-1.02037e-07
2.55105e-08
-1.30826e-07
2.85856e-08
-1.63714e-07
3.2826e-08
-2.02605e-07
3.87051e-08
-2.49099e-07
4.64557e-08
-3.02671e-07
5.34062e-08
-3.58799e-07
5.61115e-08
-4.16562e-07
5.76199e-08
-4.77655e-07
6.10863e-08
-5.41253e-07
6.34655e-08
-6.06739e-07
6.54748e-08
-6.74066e-07
6.71863e-08
-7.4256e-07
6.84739e-08
-8.11944e-07
6.92454e-08
-8.81465e-07
6.94915e-08
-9.50843e-07
6.9228e-08
-1.0194e-06
6.85154e-08
-1.08695e-06
6.74042e-08
-1.15297e-06
6.5971e-08
-1.2174e-06
6.42731e-08
-1.27985e-06
6.23889e-08
-1.34037e-06
6.03678e-08
-1.3987e-06
5.82766e-08
-1.45499e-06
5.61486e-08
-1.50906e-06
5.40344e-08
-1.56114e-06
5.19503e-08
-1.6111e-06
4.9932e-08
-1.6592e-06
4.79821e-08
-1.70536e-06
4.61253e-08
-1.74983e-06
4.43538e-08
-1.79255e-06
4.26845e-08
-1.83376e-06
4.11025e-08
-1.87342e-06
3.96205e-08
-1.91175e-06
3.82209e-08
-1.9487e-06
3.69148e-08
-1.98448e-06
3.56813e-08
-2.01905e-06
3.45312e-08
-2.0526e-06
3.34443e-08
-2.08508e-06
3.24308e-08
-2.11666e-06
3.14709e-08
-2.14731e-06
3.0577e-08
-2.17717e-06
2.9731e-08
-2.2062e-06
2.89455e-08
-2.23454e-06
2.82034e-08
-2.26217e-06
2.75187e-08
-2.28918e-06
2.68756e-08
-2.31559e-06
2.62875e-08
-2.34148e-06
2.57411e-08
-2.36687e-06
2.52499e-08
-2.39182e-06
2.48017e-08
-2.41637e-06
2.44089e-08
-2.44057e-06
2.40619e-08
-2.46448e-06
2.37716e-08
-2.48814e-06
2.35308e-08
-2.51162e-06
2.33471e-08
-2.53494e-06
2.32164e-08
-2.55823e-06
2.31437e-08
-2.58144e-06
2.31276e-08
-2.60476e-06
2.31666e-08
-2.62811e-06
2.32621e-08
-2.65169e-06
2.34081e-08
-2.67541e-06
2.36087e-08
-2.69946e-06
2.38587e-08
-2.72372e-06
2.41618e-08
-2.74842e-06
2.44991e-08
-2.77341e-06
2.48788e-08
-2.7989e-06
2.52826e-08
-2.82471e-06
2.57189e-08
-2.85108e-06
2.61518e-08
-2.87777e-06
2.65941e-08
-2.90498e-06
2.70105e-08
-2.93246e-06
2.74275e-08
-2.96031e-06
2.78095e-08
-2.98837e-06
2.8172e-08
-3.01661e-06
2.84962e-08
-3.04513e-06
2.87119e-08
-3.07377e-06
2.88e-08
-3.1024e-06
2.874e-08
-3.13083e-06
2.85252e-08
-3.15888e-06
2.8132e-08
-3.18634e-06
2.75302e-08
-3.21293e-06
2.66371e-08
-3.23802e-06
2.51181e-08
-3.26147e-06
2.34225e-08
-3.28382e-06
2.22939e-08
-3.30414e-06
2.01799e-08
-3.32198e-06
1.76182e-08
-3.33725e-06
1.4937e-08
-3.34926e-06
1.15644e-08
-3.35758e-06
7.84948e-09
-3.36144e-06
3.32363e-09
-3.36118e-06
-7.4218e-10
-3.35724e-06
-4.43083e-09
-3.34936e-06
-8.27326e-09
-3.33734e-06
-1.242e-08
-3.32047e-06
-1.71695e-08
-3.29865e-06
-2.21342e-08
-3.27229e-06
-2.6553e-08
-3.2409e-06
-3.1594e-08
-3.20384e-06
-3.71518e-08
-3.16136e-06
-4.25939e-08
-3.11317e-06
-4.81832e-08
-3.05947e-06
-5.3684e-08
-2.99987e-06
-5.94474e-08
-2.93445e-06
-6.53002e-08
-2.86336e-06
-7.10039e-08
-2.78656e-06
-7.6862e-08
-2.70402e-06
-8.25823e-08
-2.61587e-06
-8.82106e-08
-2.52217e-06
-9.36155e-08
-2.42319e-06
-9.88308e-08
-2.31913e-06
-1.03766e-07
-2.21036e-06
-1.08436e-07
-2.09715e-06
-1.12759e-07
-1.97995e-06
-1.16738e-07
-1.85911e-06
-1.20309e-07
-1.73511e-06
-1.23471e-07
-1.60838e-06
-1.2618e-07
-1.4794e-06
-1.28437e-07
-1.34864e-06
-1.30227e-07
-1.21656e-06
-1.31564e-07
-1.08362e-06
-1.3246e-07
-9.50255e-07
-1.32934e-07
-8.16865e-07
-1.33013e-07
-6.83852e-07
-1.32715e-07
-5.51552e-07
-1.32058e-07
-4.20378e-07
-1.31013e-07
-2.90391e-07
-1.29877e-07
-1.61056e-07
-1.29294e-07
-3.13916e-08
-1.29662e-07
9.83655e-08
-1.29804e-07
2.26088e-07
-1.27784e-07
3.50222e-07
-1.24221e-07
4.70228e-07
-1.20095e-07
5.85828e-07
-1.15702e-07
6.96918e-07
-1.11189e-07
8.03436e-07
-1.0662e-07
9.05391e-07
-1.02054e-07
1.00284e-06
-9.75456e-08
1.09587e-06
-9.31232e-08
1.18455e-06
-8.8774e-08
1.26903e-06
-8.45569e-08
1.34944e-06
-8.04919e-08
1.42591e-06
-7.65506e-08
1.49857e-06
-7.27254e-08
1.56755e-06
-6.90376e-08
1.63299e-06
-6.54973e-08
1.69504e-06
-6.21084e-08
1.75384e-06
-5.88411e-08
1.80948e-06
-5.56932e-08
1.8621e-06
-5.26586e-08
1.9118e-06
-4.97371e-08
1.95867e-06
-4.69047e-08
2.0028e-06
-4.41563e-08
2.04423e-06
-4.14561e-08
2.08296e-06
-3.87604e-08
2.11893e-06
-3.59953e-08
2.15196e-06
-3.30595e-08
2.1817e-06
-2.97678e-08
2.20745e-06
-2.57789e-08
2.22788e-06
-2.0466e-08
2.23921e-06
-1.13646e-08
2.23212e-06
7.05314e-09
2.18468e-06
4.74037e-08
1.16097e-07
2.06857e-06
2.10762e-08
-4.19265e-08
3.45663e-08
-3.76797e-08
4.12018e-08
-2.62683e-08
4.2896e-08
-1.54935e-08
4.04537e-08
-5.02074e-09
3.42511e-08
5.09502e-09
2.43738e-08
1.46602e-08
1.08117e-08
2.35206e-08
-6.59681e-09
3.16293e-08
-2.80079e-08
3.91176e-08
-5.35052e-08
4.62656e-08
-8.27922e-08
5.32324e-08
-1.17699e-07
5.93316e-08
-1.59312e-07
6.3785e-08
-2.04727e-07
6.85705e-08
-2.53414e-07
7.4155e-08
-3.05586e-07
8.06896e-08
-3.61e-07
8.82019e-08
-4.18955e-07
9.65984e-08
-4.77977e-07
1.05448e-07
-5.38145e-07
1.13522e-07
-6.01535e-07
1.19476e-07
-6.67766e-07
1.23805e-07
-7.3438e-07
1.27682e-07
-8.01807e-07
1.30845e-07
-8.6938e-07
1.33024e-07
-9.36526e-07
1.34281e-07
-1.00272e-06
1.34648e-07
-1.06768e-06
1.3415e-07
-1.13107e-06
1.32851e-07
-1.19274e-06
1.30839e-07
-1.25248e-06
1.28224e-07
-1.31026e-06
1.2512e-07
-1.36597e-06
1.2164e-07
-1.41964e-06
1.17888e-07
-1.47126e-06
1.13964e-07
-1.52091e-06
1.09953e-07
-1.5686e-06
1.05928e-07
-1.61445e-06
1.01948e-07
-1.65851e-06
9.80608e-08
-1.70091e-06
9.4298e-08
-1.7417e-06
9.06862e-08
-1.781e-06
8.72383e-08
-1.81887e-06
8.39653e-08
-1.85543e-06
8.08677e-08
-1.89073e-06
7.79473e-08
-1.92487e-06
7.51969e-08
-1.9579e-06
7.26136e-08
-1.98991e-06
7.01866e-08
-2.02094e-06
6.79111e-08
-2.05108e-06
6.57745e-08
-2.08036e-06
6.37716e-08
-2.10885e-06
6.189e-08
-2.13659e-06
6.01265e-08
-2.16365e-06
5.847e-08
-2.19004e-06
5.6919e-08
-2.21584e-06
5.54645e-08
-2.24106e-06
5.41075e-08
-2.26576e-06
5.28404e-08
-2.28998e-06
5.16656e-08
-2.31375e-06
5.05772e-08
-2.33712e-06
4.95797e-08
-2.36012e-06
4.86684e-08
-2.3828e-06
4.78487e-08
-2.4052e-06
4.71169e-08
-2.42735e-06
4.64788e-08
-2.4493e-06
4.59317e-08
-2.47109e-06
4.54814e-08
-2.49276e-06
4.51255e-08
-2.51435e-06
4.48687e-08
-2.53591e-06
4.47086e-08
-2.55749e-06
4.46474e-08
-2.57911e-06
4.46821e-08
-2.60083e-06
4.48124e-08
-2.62267e-06
4.50319e-08
-2.64468e-06
4.5337e-08
-2.66688e-06
4.57249e-08
-2.6893e-06
4.61884e-08
-2.71193e-06
4.67181e-08
-2.73483e-06
4.73001e-08
-2.75796e-06
4.79252e-08
-2.78135e-06
4.85755e-08
-2.80495e-06
4.92355e-08
-2.82877e-06
4.9878e-08
-2.85275e-06
5.04886e-08
-2.87688e-06
5.10395e-08
-2.90102e-06
5.15191e-08
-2.92514e-06
5.18975e-08
-2.94905e-06
5.21674e-08
-2.97268e-06
5.22651e-08
-2.99599e-06
5.21417e-08
-3.01885e-06
5.17466e-08
-3.04109e-06
5.10391e-08
-3.06252e-06
5.00022e-08
-3.08293e-06
4.85831e-08
-3.10211e-06
4.67442e-08
-3.11987e-06
4.44072e-08
-3.13627e-06
4.15193e-08
-3.15112e-06
3.82294e-08
-3.1636e-06
3.47271e-08
-3.17411e-06
3.05686e-08
-3.18244e-06
2.57763e-08
-3.18827e-06
2.04977e-08
-3.19166e-06
1.46588e-08
-3.1925e-06
8.31675e-09
-3.19098e-06
1.47242e-09
-3.18642e-06
-5.65587e-09
-3.17804e-06
-1.31053e-08
-3.16557e-06
-2.10399e-08
-3.1487e-06
-2.95259e-08
-3.12753e-06
-3.85697e-08
-3.10176e-06
-4.80691e-08
-3.07069e-06
-5.77826e-08
-3.0344e-06
-6.79913e-08
-2.99294e-06
-7.86979e-08
-2.94591e-06
-8.96688e-08
-2.89324e-06
-1.00874e-07
-2.8346e-06
-1.1227e-07
-2.77014e-06
-1.23829e-07
-2.69988e-06
-1.35471e-07
-2.62367e-06
-1.4719e-07
-2.54167e-06
-1.58901e-07
-2.45383e-06
-1.70482e-07
-2.36023e-06
-1.81838e-07
-2.261e-06
-1.92816e-07
-2.15635e-06
-2.03373e-07
-2.04656e-06
-2.13401e-07
-1.93194e-06
-2.22846e-07
-1.81285e-06
-2.31605e-07
-1.68969e-06
-2.39624e-07
-1.56289e-06
-2.46816e-07
-1.43292e-06
-2.53139e-07
-1.30027e-06
-2.58535e-07
-1.16543e-06
-2.62985e-07
-1.0289e-06
-2.66473e-07
-8.91187e-07
-2.69016e-07
-7.5277e-07
-2.70635e-07
-6.14126e-07
-2.71374e-07
-4.7568e-07
-2.71285e-07
-3.37833e-07
-2.70434e-07
-2.00772e-07
-2.69019e-07
-6.44641e-08
-2.67264e-07
7.07545e-08
-2.65059e-07
2.03768e-07
-2.62307e-07
3.32996e-07
-2.58902e-07
4.5759e-07
-2.54435e-07
5.78228e-07
-2.48461e-07
6.95287e-07
-2.41336e-07
8.08651e-07
-2.33512e-07
9.18167e-07
-2.25285e-07
1.02374e-06
-2.1682e-07
1.1253e-06
-2.08249e-07
1.22283e-06
-1.99652e-07
1.31635e-06
-1.91131e-07
1.40589e-06
-1.82727e-07
1.49153e-06
-1.74473e-07
1.57332e-06
-1.66411e-07
1.65136e-06
-1.58588e-07
1.72575e-06
-1.50986e-07
1.79659e-06
-1.43624e-07
1.86402e-06
-1.36511e-07
1.92815e-06
-1.2967e-07
1.9891e-06
-1.23091e-07
2.04697e-06
-1.16752e-07
2.10188e-06
-1.10633e-07
2.15393e-06
-1.04738e-07
2.20321e-06
-9.90458e-08
2.24981e-06
-9.35322e-08
2.2938e-06
-8.8168e-08
2.33522e-06
-8.28962e-08
2.37406e-06
-7.7623e-08
2.41027e-06
-7.22186e-08
2.44366e-06
-6.64747e-08
2.47394e-06
-6.00608e-08
2.5005e-06
-5.23629e-08
2.52231e-06
-4.22983e-08
2.53816e-06
-2.72448e-08
2.54751e-06
-2.31998e-09
2.54893e-06
4.59729e-08
1.37872e-07
2.52714e-06
9.19523e-09
-5.1201e-08
1.00678e-08
-3.86104e-08
6.51649e-09
-2.27656e-08
-6.20142e-10
-8.38653e-09
-1.09179e-08
5.24037e-09
-2.41885e-08
1.83407e-08
-4.05022e-08
3.09407e-08
-6.00425e-08
4.30374e-08
-8.31045e-08
5.46588e-08
-1.09903e-07
6.58924e-08
-1.40516e-07
7.68461e-08
-1.74828e-07
8.75201e-08
-2.13178e-07
9.76491e-08
-2.5637e-07
1.06953e-07
-3.03785e-07
1.15954e-07
-3.54707e-07
1.25055e-07
-4.08455e-07
1.34406e-07
-4.64197e-07
1.43923e-07
-5.21006e-07
1.53376e-07
-5.77962e-07
1.62386e-07
-6.34922e-07
1.70452e-07
-6.92615e-07
1.77153e-07
-7.51349e-07
1.82509e-07
-8.10246e-07
1.86562e-07
-8.6878e-07
1.89349e-07
-9.26662e-07
1.90886e-07
-9.83637e-07
1.91224e-07
-1.03945e-06
1.90441e-07
-1.09398e-06
1.88643e-07
-1.1471e-06
1.8595e-07
-1.19878e-06
1.82489e-07
-1.24898e-06
1.78395e-07
-1.2977e-06
1.73803e-07
-1.34492e-06
1.6884e-07
-1.39069e-06
1.63624e-07
-1.43501e-06
1.58259e-07
-1.47793e-06
1.52839e-07
-1.51947e-06
1.47439e-07
-1.55967e-06
1.42124e-07
-1.59857e-06
1.36942e-07
-1.63623e-06
1.31928e-07
-1.67268e-06
1.27109e-07
-1.70797e-06
1.22501e-07
-1.74214e-06
1.18113e-07
-1.77525e-06
1.13949e-07
-1.80733e-06
1.10008e-07
-1.83845e-06
1.06285e-07
-1.86863e-06
1.02773e-07
-1.89794e-06
9.9464e-08
-1.9264e-06
9.63486e-08
-1.95408e-06
9.34163e-08
-1.98099e-06
9.06576e-08
-2.0072e-06
8.8062e-08
-2.03272e-06
8.56216e-08
-2.05762e-06
8.33276e-08
-2.08191e-06
8.1174e-08
-2.10564e-06
7.91545e-08
-2.12884e-06
7.72653e-08
-2.15154e-06
7.55024e-08
-2.17379e-06
7.3864e-08
-2.1956e-06
7.23482e-08
-2.21703e-06
7.09553e-08
-2.23809e-06
6.96851e-08
-2.25883e-06
6.85395e-08
-2.27928e-06
6.7519e-08
-2.29948e-06
6.66264e-08
-2.31946e-06
6.58628e-08
-2.33927e-06
6.5231e-08
-2.35892e-06
6.47321e-08
-2.37847e-06
6.43677e-08
-2.39794e-06
6.41374e-08
-2.41739e-06
6.40414e-08
-2.43682e-06
6.40771e-08
-2.4563e-06
6.42401e-08
-2.47584e-06
6.4525e-08
-2.49548e-06
6.49251e-08
-2.51524e-06
6.54321e-08
-2.53514e-06
6.60353e-08
-2.55519e-06
6.67202e-08
-2.57542e-06
6.74691e-08
-2.59581e-06
6.82639e-08
-2.61637e-06
6.90813e-08
-2.63709e-06
6.98951e-08
-2.65795e-06
7.06746e-08
-2.67891e-06
7.13913e-08
-2.69993e-06
7.20103e-08
-2.72096e-06
7.25007e-08
-2.74191e-06
7.2829e-08
-2.76266e-06
7.2953e-08
-2.78313e-06
7.28267e-08
-2.80329e-06
7.23724e-08
-2.82304e-06
7.15305e-08
-2.84222e-06
7.02613e-08
-2.86072e-06
6.85083e-08
-2.87835e-06
6.62336e-08
-2.89499e-06
6.33726e-08
-2.91047e-06
5.98854e-08
-2.92471e-06
5.573e-08
-2.93747e-06
5.09526e-08
-2.9484e-06
4.55889e-08
-2.95746e-06
3.95228e-08
-2.96452e-06
3.26759e-08
-2.96933e-06
2.50907e-08
-2.97169e-06
1.6779e-08
-2.97138e-06
7.72637e-09
-2.96812e-06
-2.03646e-09
-2.96153e-06
-1.25052e-08
-2.95119e-06
-2.36571e-08
-2.93686e-06
-3.55798e-08
-2.91829e-06
-4.82546e-08
-2.89537e-06
-6.16621e-08
-2.86778e-06
-7.57714e-08
-2.83519e-06
-9.04915e-08
-2.79744e-06
-1.05811e-07
-2.75445e-06
-1.21751e-07
-2.70598e-06
-1.38167e-07
-2.65188e-06
-1.54981e-07
-2.59198e-06
-1.72123e-07
-2.52626e-06
-1.89485e-07
-2.45469e-06
-2.0698e-07
-2.37728e-06
-2.24607e-07
-2.29404e-06
-2.42169e-07
-2.20502e-06
-2.59556e-07
-2.11029e-06
-2.76587e-07
-2.01e-06
-2.93092e-07
-1.90435e-06
-3.08936e-07
-1.79366e-06
-3.23993e-07
-1.67822e-06
-3.38132e-07
-1.55842e-06
-3.51231e-07
-1.43468e-06
-3.63172e-07
-1.30745e-06
-3.7385e-07
-1.1772e-06
-3.83178e-07
-1.04444e-06
-3.91088e-07
-9.09684e-07
-3.9754e-07
-7.73446e-07
-4.02521e-07
-6.36235e-07
-4.06049e-07
-4.98547e-07
-4.08166e-07
-3.60854e-07
-4.08927e-07
-2.2357e-07
-4.08459e-07
-8.69707e-08
-4.06936e-07
4.85278e-08
-4.04443e-07
1.8222e-07
-4.00888e-07
3.13406e-07
-3.96195e-07
4.4153e-07
-3.90387e-07
5.66069e-07
-3.83412e-07
6.86746e-07
-3.75083e-07
8.03679e-07
-3.65377e-07
9.16934e-07
-3.54572e-07
1.02643e-06
-3.43002e-07
1.13209e-06
-3.30934e-07
1.23385e-06
-3.18568e-07
1.33167e-06
-3.06058e-07
1.42554e-06
-2.93527e-07
1.5155e-06
-2.81085e-07
1.60159e-06
-2.68812e-07
1.68387e-06
-2.56754e-07
1.76242e-06
-2.44965e-07
1.83734e-06
-2.335e-07
1.90874e-06
-2.22383e-07
1.97674e-06
-2.11622e-07
2.04145e-06
-2.01226e-07
2.10299e-06
-1.9121e-07
2.16147e-06
-1.81574e-07
2.21701e-06
-1.72288e-07
2.26971e-06
-1.63337e-07
2.31968e-06
-1.54704e-07
2.36701e-06
-1.4637e-07
2.41178e-06
-1.38297e-07
2.45405e-06
-1.30444e-07
2.49388e-06
-1.22719e-07
2.53125e-06
-1.14996e-07
2.56612e-06
-1.07085e-07
2.59834e-06
-9.86993e-08
2.62766e-06
-8.9382e-08
2.65363e-06
-7.83437e-08
2.67555e-06
-6.42242e-08
2.69255e-06
-4.42529e-08
2.70395e-06
-1.37298e-08
2.71165e-06
3.82737e-08
1.3053e-07
2.71899e-06
-4.58478e-09
-4.66855e-08
-1.46502e-08
-2.85912e-08
-2.69182e-08
-1.05353e-08
-4.14034e-08
6.07541e-09
-5.8113e-08
2.19227e-08
-7.71061e-08
3.73156e-08
-9.85547e-08
5.23647e-08
-1.22642e-07
6.71082e-08
-1.49572e-07
8.15657e-08
-1.79449e-07
9.5753e-08
-2.12293e-07
1.09667e-07
-2.48037e-07
1.23249e-07
-2.86776e-07
1.36365e-07
-3.28736e-07
1.48899e-07
-3.73728e-07
1.60924e-07
-4.21232e-07
1.72545e-07
-4.70629e-07
1.8378e-07
-5.2125e-07
1.9453e-07
-5.72501e-07
2.04604e-07
-6.23884e-07
2.13756e-07
-6.75175e-07
2.21719e-07
-7.26329e-07
2.28293e-07
-7.77269e-07
2.33425e-07
-8.27819e-07
2.37096e-07
-8.77811e-07
2.39315e-07
-9.27073e-07
2.40131e-07
-9.75502e-07
2.39626e-07
-1.02299e-06
2.37913e-07
-1.0695e-06
2.35126e-07
-1.11498e-06
2.31405e-07
-1.15941e-06
2.26897e-07
-1.20278e-06
2.21745e-07
-1.24509e-06
2.16089e-07
-1.28633e-06
2.1006e-07
-1.32651e-06
2.03779e-07
-1.36562e-06
1.97354e-07
-1.40368e-06
1.90881e-07
-1.4407e-06
1.84436e-07
-1.47668e-06
1.78086e-07
-1.51163e-06
1.71881e-07
-1.54559e-06
1.6586e-07
-1.57855e-06
1.60053e-07
-1.61054e-06
1.54478e-07
-1.64159e-06
1.49147e-07
-1.67173e-06
1.44067e-07
-1.70098e-06
1.39238e-07
-1.72938e-06
1.34657e-07
-1.75694e-06
1.30318e-07
-1.78372e-06
1.26214e-07
-1.80972e-06
1.22335e-07
-1.835e-06
1.18671e-07
-1.85958e-06
1.15212e-07
-1.8835e-06
1.11949e-07
-1.90677e-06
1.08872e-07
-1.92945e-06
1.05972e-07
-1.95155e-06
1.03243e-07
-1.9731e-06
1.00678e-07
-1.99414e-06
9.82729e-08
-2.0147e-06
9.60242e-08
-2.0348e-06
9.39295e-08
-2.05447e-06
9.19874e-08
-2.07375e-06
9.01984e-08
-2.09266e-06
8.8563e-08
-2.11124e-06
8.70829e-08
-2.12952e-06
8.57603e-08
-2.14753e-06
8.45978e-08
-2.16531e-06
8.35979e-08
-2.18288e-06
8.27632e-08
-2.20028e-06
8.20956e-08
-2.21754e-06
8.15967e-08
-2.23471e-06
8.12667e-08
-2.25181e-06
8.11043e-08
-2.26887e-06
8.11068e-08
-2.28594e-06
8.12696e-08
-2.30304e-06
8.15851e-08
-2.32019e-06
8.20439e-08
-2.33743e-06
8.26354e-08
-2.35478e-06
8.33441e-08
-2.37225e-06
8.41519e-08
-2.38986e-06
8.50365e-08
-2.40761e-06
8.59733e-08
-2.4255e-06
8.69325e-08
-2.44353e-06
8.78811e-08
-2.46168e-06
8.87815e-08
-2.47993e-06
8.95946e-08
-2.49824e-06
9.02777e-08
-2.51656e-06
9.07867e-08
-2.53483e-06
9.10738e-08
-2.55293e-06
9.1094e-08
-2.57082e-06
9.07668e-08
-2.58845e-06
9.00394e-08
-2.60572e-06
8.88266e-08
-2.62253e-06
8.70729e-08
-2.63874e-06
8.47144e-08
-2.65421e-06
8.16965e-08
-2.6688e-06
7.79531e-08
-2.68238e-06
7.34354e-08
-2.69479e-06
6.80988e-08
-2.70583e-06
6.19386e-08
-2.71527e-06
5.49462e-08
-2.72293e-06
4.70638e-08
-2.72864e-06
3.82221e-08
-2.73216e-06
2.8406e-08
-2.73323e-06
1.76201e-08
-2.73158e-06
5.84218e-09
-2.72692e-06
-6.91522e-09
-2.71895e-06
-2.06767e-08
-2.70737e-06
-3.54222e-08
-2.69192e-06
-5.11905e-08
-2.67238e-06
-6.79358e-08
-2.64852e-06
-8.56507e-08
-2.62009e-06
-1.04302e-07
-2.58683e-06
-1.23835e-07
-2.54855e-06
-1.44157e-07
-2.50509e-06
-1.65256e-07
-2.45627e-06
-1.87003e-07
-2.40193e-06
-2.09317e-07
-2.34192e-06
-2.32081e-07
-2.27619e-06
-2.55173e-07
-2.20467e-06
-2.78455e-07
-2.12743e-06
-3.01869e-07