/*--------------------------------*- C++ -*----------------------------------*\
  =========                 |
  \\      /  F ield         | OpenFOAM: The Open Source CFD Toolbox
   \\    /   O peration     | Website:  https://openfoam.org
    \\  /    A nd           | Version:  6
     \\/     M anipulation  |
\*---------------------------------------------------------------------------*/
FoamFile
{
    version     2.0;
    format      ascii;
    class       volVectorField;
    location    "100";
    object      U;
}
// * * * * * * * * * * * * * * * * * * * * * * * * * * * * * * * * * * * * * //

dimensions      [0 1 -1 0 0 0 0];

internalField   nonuniform List<vector> 
12225
(
(9.85697 -0.886412 0)
(9.6666 -0.740745 0)
(9.45559 -0.429459 0)
(9.22425 -0.222191 0)
(9.00602 -0.106415 0)
(8.81362 -0.0458097 0)
(8.6463 -0.0151082 0)
(8.50372 0.000553513 0)
(8.38136 0.0085183 0)
(8.27787 0.0124646 0)
(8.18826 0.014249 0)
(8.11066 0.0153873 0)
(8.04165 0.0159607 0)
(7.97962 0.0164668 0)
(7.92105 0.0171971 0)
(7.86794 0.0185564 0)
(7.79328 0.0222904 0)
(7.78394 0.0321282 0)
(10.0545 0.227556 0)
(10.121 0.326934 0)
(10.1196 0.261591 0)
(10.0855 0.186587 0)
(10.0432 0.13473 0)
(9.99641 0.101208 0)
(9.94355 0.0794249 0)
(9.8845 0.0647477 0)
(9.82286 0.0545136 0)
(9.75986 0.0470228 0)
(9.69787 0.0414093 0)
(9.63724 0.037082 0)
(9.57896 0.0337818 0)
(9.52322 0.0315316 0)
(9.46921 0.0300139 0)
(9.42007 0.031633 0)
(9.36636 0.0316352 0)
(9.34014 0.0562129 0)
(10.0035 0.0579246 0)
(10.0303 0.0560257 0)
(10.056 0.0338218 0)
(10.0702 0.0329589 0)
(10.0767 0.0407445 0)
(10.0775 0.0466833 0)
(10.072 0.0495504 0)
(10.0606 0.0505676 0)
(10.0451 0.0505665 0)
(10.0262 0.0499952 0)
(10.0052 0.0491596 0)
(9.9822 0.0483087 0)
(9.95808 0.047595 0)
(9.93313 0.0473315 0)
(9.90725 0.0475179 0)
(9.88174 0.0498575 0)
(9.85499 0.0528159 0)
(9.83353 0.065951 0)
(9.99778 0.0110644 0)
(10.011 0.0266352 0)
(10.0349 0.0372038 0)
(10.0524 0.0481705 0)
(10.0641 0.0555811 0)
(10.073 0.0583665 0)
(10.0789 0.0586083 0)
(10.0816 0.0579632 0)
(10.0817 0.0570486 0)
(10.0797 0.0560417 0)
(10.0761 0.0550417 0)
(10.0711 0.0542165 0)
(10.0648 0.0536296 0)
(10.0577 0.0535657 0)
(10.0494 0.0540911 0)
(10.041 0.0563675 0)
(10.0326 0.0597567 0)
(10.0267 0.0680504 0)
(9.99935 0.00721269 0)
(10.009 0.0316924 0)
(10.0274 0.0439934 0)
(10.0417 0.0500364 0)
(10.0525 0.0537787 0)
(10.0625 0.05547 0)
(10.071 0.0558403 0)
(10.0775 0.0556705 0)
(10.0823 0.0552917 0)
(10.0858 0.0548163 0)
(10.0881 0.0543323 0)
(10.0895 0.0539882 0)
(10.0899 0.0538759 0)
(10.0897 0.054232 0)
(10.0888 0.0551829 0)
(10.088 0.0574113 0)
(10.0876 0.0606519 0)
(10.0893 0.0659558 0)
(10.0003 0.00919766 0)
(10.0083 0.0312188 0)
(10.0226 0.0410343 0)
(10.0348 0.045534 0)
(10.0448 0.0492427 0)
(10.0544 0.0516594 0)
(10.0632 0.0527483 0)
(10.0706 0.0531233 0)
(10.0768 0.0531817 0)
(10.082 0.0530831 0)
(10.0864 0.052938 0)
(10.0901 0.0528879 0)
(10.0932 0.0530426 0)
(10.0957 0.0535893 0)
(10.098 0.0546549 0)
(10.1004 0.0566011 0)
(10.1034 0.0592616 0)
(10.108 0.062665 0)
(10.0004 0.0089688 0)
(10.0071 0.0271454 0)
(10.019 0.0365227 0)
(10.03 0.0415598 0)
(10.0393 0.0456593 0)
(10.0483 0.0484207 0)
(10.0567 0.0498134 0)
(10.0642 0.0504452 0)
(10.0707 0.0507358 0)
(10.0765 0.050854 0)
(10.0817 0.050911 0)
(10.0863 0.0510341 0)
(10.0904 0.0513327 0)
(10.0943 0.0519461 0)
(10.098 0.0529715 0)
(10.1019 0.0545699 0)
(10.1064 0.0565853 0)
(10.1122 0.0587242 0)
(10.0004 0.00794478 0)
(10.006 0.0234504 0)
(10.0161 0.0328646 0)
(10.0261 0.0383007 0)
(10.0349 0.0423832 0)
(10.0432 0.0451751 0)
(10.0512 0.0467249 0)
(10.0585 0.0475393 0)
(10.065 0.0480005 0)
(10.0709 0.0482754 0)
(10.0764 0.0484738 0)
(10.0814 0.0487087 0)
(10.0861 0.0490799 0)
(10.0905 0.0496859 0)
(10.095 0.0505866 0)
(10.0996 0.0518244 0)
(10.1048 0.05324 0)
(10.1108 0.0544851 0)
(10.0004 0.00699398 0)
(10.005 0.0205091 0)
(10.0136 0.0296026 0)
(10.0227 0.0350905 0)
(10.031 0.0390394 0)
(10.0388 0.041822 0)
(10.0464 0.0435076 0)
(10.0534 0.0444787 0)
(10.0598 0.0450745 0)
(10.0657 0.0454661 0)
(10.0712 0.0457617 0)
(10.0764 0.046062 0)
(10.0813 0.0464515 0)
(10.0861 0.0469968 0)
(10.0909 0.0477244 0)
(10.0959 0.0486136 0)
(10.1013 0.0495109 0)
(10.1073 0.0501151 0)
(10.0004 0.00616796 0)
(10.0043 0.0179538 0)
(10.0116 0.0264436 0)
(10.0198 0.031839 0)
(10.0275 0.0356721 0)
(10.0348 0.0384308 0)
(10.042 0.0402087 0)
(10.0487 0.0412961 0)
(10.055 0.041991 0)
(10.0609 0.042465 0)
(10.0664 0.0428228 0)
(10.0716 0.0431519 0)
(10.0767 0.0435205 0)
(10.0816 0.0439714 0)
(10.0866 0.044507 0)
(10.0917 0.045079 0)
(10.0971 0.0455519 0)
(10.1028 0.0456976 0)
(10.0003 0.00541261 0)
(10.0036 0.0156533 0)
(10.0098 0.0234217 0)
(10.0172 0.0286282 0)
(10.0243 0.0323289 0)
(10.0313 0.0350208 0)
(10.038 0.0368331 0)
(10.0445 0.0379931 0)
(10.0506 0.0387548 0)
(10.0564 0.0392817 0)
(10.0618 0.0396723 0)
(10.0671 0.0400012 0)
(10.0721 0.0403223 0)
(10.0771 0.0406612 0)
(10.0821 0.041007 0)
(10.0872 0.0413044 0)
(10.0925 0.0414443 0)
(10.098 0.0412666 0)
(10.0003 0.00475146 0)
(10.0031 0.0137214 0)
(10.0085 0.0207907 0)
(10.0151 0.0257392 0)
(10.0218 0.029281 0)
(10.0283 0.0318745 0)
(10.0348 0.0336737 0)
(10.041 0.0348641 0)
(10.0469 0.0356597 0)
(10.0526 0.0362108 0)
(10.058 0.0366084 0)
(10.0632 0.0369166 0)
(10.0682 0.0371782 0)
(10.0732 0.0374091 0)
(10.0782 0.037593 0)
(10.0832 0.0376794 0)
(10.0883 0.0375838 0)
(10.0935 0.0371997 0)
(10.0003 0.00414091 0)
(10.0027 0.011957 0)
(10.0074 0.0183018 0)
(10.0134 0.0229148 0)
(10.0196 0.0262614 0)
(10.0257 0.0287284 0)
(10.0318 0.0304788 0)
(10.0378 0.0316678 0)
(10.0436 0.0324725 0)
(10.0491 0.0330268 0)
(10.0544 0.0334138 0)
(10.0595 0.0336878 0)
(10.0646 0.0338828 0)
(10.0695 0.0340092 0)
(10.0744 0.034051 0)
(10.0793 0.0339665 0)
(10.0842 0.0336933 0)
(10.0891 0.0331641 0)
(10.0002 0.00351034 0)
(10.0024 0.0101224 0)
(10.0064 0.0156311 0)
(10.0117 0.0197832 0)
(10.0173 0.02285 0)
(10.0231 0.0251285 0)
(10.0289 0.0267763 0)
(10.0346 0.0279217 0)
(10.0401 0.0287037 0)
(10.0455 0.0292355 0)
(10.0507 0.0295905 0)
(10.0557 0.029813 0)
(10.0607 0.0299288 0)
(10.0655 0.0299454 0)
(10.0703 0.0298507 0)
(10.075 0.0296154 0)
(10.0797 0.0291988 0)
(10.0843 0.028563 0)
(10.0002 0.00285508 0)
(10.002 0.00821477 0)
(10.0055 0.012785 0)
(10.0101 0.0163443 0)
(10.0153 0.0190265 0)
(10.0206 0.0210371 0)
(10.026 0.0225122 0)
(10.0314 0.0235554 0)
(10.0367 0.0242695 0)
(10.0419 0.0247431 0)
(10.0469 0.025037 0)
(10.0518 0.0251876 0)
(10.0567 0.0252136 0)
(10.0614 0.025121 0)
(10.066 0.0249037 0)
(10.0705 0.0245455 0)
(10.0749 0.0240254 0)
(10.0792 0.0233255 0)
(10.0002 0.00217364 0)
(10.0017 0.00623466 0)
(10.0047 0.00976973 0)
(10.0088 0.0125992 0)
(10.0134 0.0147737 0)
(10.0183 0.0164185 0)
(10.0233 0.017635 0)
(10.0284 0.0185014 0)
(10.0335 0.0190889 0)
(10.0384 0.0194596 0)
(10.0433 0.0196594 0)
(10.0481 0.019717 0)
(10.0527 0.0196466 0)
(10.0572 0.0194535 0)
(10.0616 0.0191365 0)
(10.0659 0.0186904 0)
(10.0701 0.018109 0)
(10.0741 0.0173867 0)
(10.0002 0.00146203 0)
(10.0015 0.00416661 0)
(10.0041 0.0065662 0)
(10.0077 0.00852663 0)
(10.0118 0.0100568 0)
(10.0164 0.0112205 0)
(10.0211 0.0120794 0)
(10.0258 0.0126832 0)
(10.0306 0.0130753 0)
(10.0354 0.0132929 0)
(10.04 0.0133648 0)
(10.0446 0.0133109 0)
(10.049 0.0131416 0)
(10.0534 0.0128617 0)
(10.0576 0.0124728 0)
(10.0616 0.0119762 0)
(10.0655 0.0113739 0)
(10.0692 0.0106663 0)
(10.0001 0.000702895 0)
(10.0013 0.00195752 0)
(10.0036 0.00309996 0)
(10.0069 0.00404325 0)
(10.0108 0.0047809 0)
(10.015 0.00533399 0)
(10.0194 0.00572491 0)
(10.0239 0.00597304 0)
(10.0285 0.00609585 0)
(10.033 0.00610763 0)
(10.0375 0.0060195 0)
(10.0418 0.00583945 0)
(10.0461 0.00557259 0)
(10.0502 0.00522154 0)
(10.0541 0.00478832 0)
(10.058 0.00427557 0)
(10.0616 0.00368809 0)
(10.0651 0.00302711 0)
(10.0001 -0.000148091 0)
(10.0013 -0.00051538 0)
(10.0035 -0.000803784 0)
(10.0066 -0.00104619 0)
(10.0103 -0.00124971 0)
(10.0144 -0.00143057 0)
(10.0187 -0.00160738 0)
(10.0231 -0.00179411 0)
(10.0275 -0.00199971 0)
(10.0319 -0.00223257 0)
(10.0362 -0.00250032 0)
(10.0404 -0.00280891 0)
(10.0444 -0.00316217 0)
(10.0484 -0.00356261 0)
(10.0521 -0.00401145 0)
(10.0557 -0.00450848 0)
(10.0592 -0.00505071 0)
(10.0624 -0.00563976 0)
(10.0001 -0.000964794 0)
(10.0013 -0.00288759 0)
(10.0037 -0.00455745 0)
(10.007 -0.00593185 0)
(10.0109 -0.00701541 0)
(10.0151 -0.00786948 0)
(10.0195 -0.00855683 0)
(10.024 -0.00912072 0)
(10.0284 -0.00959766 0)
(10.0328 -0.0100206 0)
(10.037 -0.0104166 0)
(10.0412 -0.0108048 0)
(10.0452 -0.0111982 0)
(10.049 -0.0116053 0)
(10.0526 -0.0120321 0)
(10.0561 -0.0124824 0)
(10.0594 -0.0129571 0)
(10.0626 -0.0134601 0)
(10.0002 -0.00166929 0)
(10.0015 -0.00495767 0)
(10.0041 -0.00783426 0)
(10.0078 -0.0101304 0)
(10.0121 -0.0118741 0)
(10.0166 -0.0132168 0)
(10.0212 -0.0142657 0)
(10.0258 -0.0150794 0)
(10.0304 -0.0157161 0)
(10.0348 -0.0162351 0)
(10.0391 -0.0166833 0)
(10.0432 -0.0170913 0)
(10.0472 -0.0174793 0)
(10.051 -0.0178607 0)
(10.0546 -0.0182453 0)
(10.058 -0.01864 0)
(10.0613 -0.0190474 0)
(10.0643 -0.0194731 0)
(10.0002 -0.00233788 0)
(10.0017 -0.00700082 0)
(10.0047 -0.0111038 0)
(10.009 -0.0142298 0)
(10.0138 -0.0164839 0)
(10.0187 -0.0181781 0)
(10.0235 -0.0194737 0)
(10.0284 -0.0204439 0)
(10.0332 -0.0211697 0)
(10.0377 -0.0217326 0)
(10.0421 -0.0221905 0)
(10.0463 -0.0225829 0)
(10.0502 -0.022936 0)
(10.054 -0.0232695 0)
(10.0576 -0.0235961 0)
(10.061 -0.0239253 0)
(10.0642 -0.0242603 0)
(10.0672 -0.0246069 0)
(10.0002 -0.00296332 0)
(10.0018 -0.00906751 0)
(10.0054 -0.0143919 0)
(10.0106 -0.0182473 0)
(10.016 -0.0209592 0)
(10.0213 -0.0229511 0)
(10.0265 -0.0243796 0)
(10.0316 -0.0253722 0)
(10.0366 -0.0260838 0)
(10.0413 -0.0266242 0)
(10.0457 -0.0270509 0)
(10.0499 -0.0274002 0)
(10.0539 -0.0277018 0)
(10.0577 -0.027978 0)
(10.0613 -0.0282438 0)
(10.0647 -0.0285087 0)
(10.0679 -0.0287763 0)
(10.0709 -0.0290516 0)
(10.0001 -0.00351459 0)
(10.0018 -0.0115278 0)
(10.0063 -0.0178405 0)
(10.0123 -0.0219122 0)
(10.0184 -0.0249545 0)
(10.0242 -0.0273419 0)
(10.0298 -0.0289607 0)
(10.0353 -0.0299545 0)
(10.0404 -0.030595 0)
(10.0452 -0.0310486 0)
(10.0498 -0.0313843 0)
(10.0541 -0.0316418 0)
(10.0581 -0.0318547 0)
(10.0619 -0.032047 0)
(10.0655 -0.0322336 0)
(10.0688 -0.032422 0)
(10.072 -0.0326151 0)
(10.0749 -0.032814 0)
(9.99992 -0.00336779 0)
(10.0016 -0.0149499 0)
(10.0073 -0.0226903 0)
(10.0143 -0.0261829 0)
(10.0207 -0.0287498 0)
(10.027 -0.0310977 0)
(10.0332 -0.0328061 0)
(10.0392 -0.0338838 0)
(10.0447 -0.0345751 0)
(10.0497 -0.0350346 0)
(10.0544 -0.035334 0)
(10.0588 -0.0355273 0)
(10.0628 -0.0356605 0)
(10.0665 -0.0357652 0)
(10.07 -0.0358598 0)
(10.0732 -0.0359542 0)
(10.0761 -0.0360524 0)
(10.0788 -0.036157 0)
(9.9986 -0.000388695 0)
(9.99909 -0.0157428 0)
(10.0076 -0.0274025 0)
(10.0167 -0.0324503 0)
(10.0238 -0.034812 0)
(10.0307 -0.0361527 0)
(10.0378 -0.0368933 0)
(10.0443 -0.0373529 0)
(10.0501 -0.0376968 0)
(10.0553 -0.0379419 0)
(10.0599 -0.0380883 0)
(10.064 -0.0381608 0)
(10.0676 -0.0381905 0)
(10.0708 -0.0381999 0)
(10.0736 -0.0382037 0)
(10.076 -0.0382104 0)
(10.0782 -0.0382221 0)
(10.08 -0.0382407 0)
(9.99488 0.0013419 0)
(9.99288 -0.00808324 0)
(10.0061 -0.020333 0)
(10.0202 -0.0322469 0)
(10.0307 -0.0404393 0)
(10.0393 -0.0441011 0)
(10.0469 -0.0450038 0)
(10.0531 -0.0448522 0)
(10.058 -0.0443813 0)
(10.0619 -0.0437847 0)
(10.0649 -0.0431413 0)
(10.0671 -0.0425076 0)
(10.0686 -0.0419193 0)
(10.0695 -0.0413855 0)
(10.0698 -0.0409158 0)
(10.0697 -0.0405067 0)
(10.0692 -0.0401551 0)
(10.0685 -0.0398355 0)
(9.99473 -0.0305575 0)
(9.99926 -0.0228649 0)
(10.0147 -0.00262355 0)
(10.0304 -0.00188806 0)
(10.0435 -0.0116291 0)
(10.0534 -0.0208872 0)
(10.0595 -0.0272386 0)
(10.062 -0.031461 0)
(10.0617 -0.034232 0)
(10.0593 -0.0359269 0)
(10.0553 -0.0368591 0)
(10.05 -0.0372952 0)
(10.0438 -0.0374252 0)
(10.0368 -0.0373685 0)
(10.0293 -0.0372164 0)
(10.0213 -0.0370249 0)
(10.0132 -0.036858 0)
(10.005 -0.0366843 0)
(10.0273 -0.182756 0)
(10.0763 -0.288311 0)
(10.0872 -0.247747 0)
(10.0777 -0.186508 0)
(10.0664 -0.140278 0)
(10.0538 -0.108198 0)
(10.0366 -0.085855 0)
(10.0146 -0.0703922 0)
(9.98952 -0.0596206 0)
(9.96251 -0.0518444 0)
(9.93458 -0.0460222 0)
(9.9063 -0.0415284 0)
(9.87816 -0.0379778 0)
(9.85049 -0.035108 0)
(9.82352 -0.0327484 0)
(9.79737 -0.0308359 0)
(9.77229 -0.0293282 0)
(9.74829 -0.0285202 0)
(9.93575 0.689321 0)
(9.86861 0.609607 0)
(9.76456 0.380631 0)
(9.6267 0.217452 0)
(9.486 0.119281 0)
(9.35737 0.0632039 0)
(9.24291 0.0315938 0)
(9.14143 0.0136347 0)
(9.05182 0.00328273 0)
(8.97291 -0.00277713 0)
(8.90308 -0.00633258 0)
(8.84096 -0.00845462 0)
(8.78532 -0.00970926 0)
(8.73525 -0.0104612 0)
(8.68985 -0.0109664 0)
(8.64852 -0.0112388 0)
(8.61033 -0.0114499 0)
(8.57496 -0.0121128 0)
(0.0111597 -0.0167197 -5.8809e-19)
(0.0322098 -0.0256074 2.83028e-19)
(0.0484234 -0.0234617 0)
(0.0637004 -0.0171919 0)
(0.0736377 -0.00894364 0)
(0.0773432 -0.000224107 -1.11647e-19)
(0.0753478 0.00788057 0)
(0.068322 0.0146434 0)
(0.0569737 0.0197847 0)
(0.0421355 0.0234041 0)
(0.0252726 0.0262449 8.84519e-20)
(0.00938419 0.0294734 0)
(-0.0115772 0.0259124 0)
(-0.0417713 0.0142152 0)
(-0.0576558 0.00899976 0)
(-0.0783202 0.00779867 2.32129e-19)
(-0.101256 0.00840284 0)
(-0.128776 0.0116701 0)
(-0.162935 0.0201472 0)
(-0.202737 0.035695 0)
(-0.246641 0.0488898 0)
(-0.297212 0.0491278 0)
(-0.347938 0.0489181 0)
(-0.398569 0.055984 1.09816e-19)
(-0.455794 0.0584922 -1.01496e-19)
(-0.514165 0.0600406 9.39549e-20)
(-0.574234 0.0613601 8.72185e-20)
(-0.63566 0.062389 0)
(-0.698052 0.0630047 0)
(-0.760951 0.0631612 -7.14929e-20)
(-0.823906 0.0628528 -6.74743e-20)
(-0.886478 0.0621231 0)
(-0.948289 0.0610094 0)
(-1.00901 0.0595776 -5.8086e-20)
(-1.0684 0.0578802 0)
(-1.12622 0.0559903 0)
(-1.18234 0.0539566 5.15471e-20)
(-1.23666 0.051844 0)
(-1.28913 0.0496874 4.82499e-20)
(-1.33974 0.0475372 9.36733e-20)
(-1.3885 0.0454123 0)
(-1.43547 0.0433485 0)
(-1.4807 0.041351 0)
(-1.52426 0.0394443 0)
(-1.56624 0.0376222 0)
(-1.60671 0.0359007 8.10261e-20)
(-1.64578 0.0342662 7.94058e-20)
(-1.6835 0.0327298 7.78781e-20)
(-1.71998 0.0312751 0)
(-1.75528 0.0299108 -7.50505e-20)
(-1.78947 0.0286164 0)
(-1.82264 0.0274015 7.24609e-20)
(-1.85484 0.0262475 7.12354e-20)
(-1.88614 0.025163 0)
(-1.9166 0.0241291 0)
(-1.94627 0.0231572 0)
(-1.97521 0.0222315 6.66538e-20)
(-2.00346 0.0213634 0)
(-2.03107 0.020536 0)
(-2.05807 0.0197631 0)
(-2.08453 0.0190311 0)
(-2.11047 0.018354 0)
(-2.13595 0.0177186 0)
(-2.161 0.0171393 0)
(-2.18567 0.0166035 0)
(-2.21001 0.0161259 -5.71933e-20)
(-2.23405 0.0156958 0)
(-2.25784 0.0153263 0)
(-2.28144 0.0150077 5.40945e-20)
(-2.30488 0.0147507 5.30598e-20)
(-2.32822 0.0145474 0)
(-2.35151 0.0144059 -5.09903e-20)
(-2.37481 0.0143194 4.99559e-20)
(-2.39816 0.0142933 0)
(-2.42164 0.0143227 -4.78892e-20)
(-2.44529 0.0144119 0)
(-2.46917 0.0145625 0)
(-2.49331 0.0147784 4.48097e-20)
(-2.51777 0.0150565 0)
(-2.54259 0.0153946 -4.27853e-20)
(-2.5678 0.015795 0)
(-2.59344 0.0162514 4.07995e-20)
(-2.61952 0.0167594 3.98265e-20)
(-2.64608 0.0173031 3.88694e-20)
(-2.67311 0.0178846 7.5863e-20)
(-2.70063 0.0184872 -7.40315e-20)
(-2.72858 0.0191135 0)
(-2.75691 0.0197314 0)
(-2.78554 0.0203375 0)
(-2.81442 0.0208838 -6.72401e-20)
(-2.84363 0.0213263 -6.5688e-20)
(-2.8731 0.0216493 6.41975e-20)
(-2.9027 0.0218378 0)
(-2.93228 0.0218822 -6.13987e-20)
(-2.96166 0.021755 -6.00914e-20)
(-2.99067 0.0214004 -5.88494e-20)
(-3.01909 0.0206628 0)
(-3.04651 0.0189315 0)
(-3.07244 0.0176146 0)
(-3.0971 0.0183854 -5.44955e-20)
(-3.12052 0.0172571 0)
(-3.14181 0.0157144 0)
(-3.16087 0.0148567 5.2115e-20)
(-3.1771 0.0133174 0)
(-3.19021 0.0117105 0)
(-3.19941 0.00893356 5.0253e-20)
(-3.20417 0.00726915 0)
(-3.20555 0.00637701 0)
(-3.20338 0.00532213 -4.82959e-20)
(-3.19743 0.00388158 -4.76684e-20)
(-3.18712 0.00120972 0)
(-3.17205 -0.00140847 4.61517e-20)
(-3.15245 -0.00246015 0)
(-3.12834 -0.00456285 -4.42869e-20)
(-3.09895 -0.0076818 0)
(-3.0642 -0.0102672 -4.17648e-20)
(-3.02399 -0.013002 -4.01538e-20)
(-2.97834 -0.0153369 0)
(-2.92714 -0.0183969 0)
(-2.87001 -0.0217259 0)
(-2.80738 -0.0247664 0)
(-2.73899 -0.0283245 0)
(-2.66492 -0.0318537 0)
(-2.58518 -0.0354962 0)
(-2.4998 -0.0391792 -1.35075e-20)
(-2.40895 -0.0429031 7.51794e-21)
(-2.31283 -0.0466116 0)
(-2.21171 -0.0502933 0)
(-2.10587 -0.0538902 0)
(-1.99566 -0.0573887 0)
(-1.88144 -0.0607414 -7.29427e-20)
(-1.7636 -0.0639328 0)
(-1.64258 -0.0669319 1.24775e-19)
(-1.51881 -0.0697271 -1.55217e-19)
(-1.39274 -0.0723046 0)
(-1.26483 -0.0746784 0)
(-1.13552 -0.0768604 0)
(-1.00523 -0.0788587 3.16015e-19)
(-0.874379 -0.080694 3.68787e-19)
(-0.743359 -0.0823898 0)
(-0.612537 -0.0839609 4.95555e-19)
(-0.482332 -0.085367 5.72563e-19)
(-0.352884 -0.0866108 -6.61253e-19)
(-0.224879 -0.0879127 0)
(-0.0969542 -0.0881738 0)
(0.0336473 -0.0859296 -8.28921e-19)
(0.163443 -0.0820551 0)
(0.29009 -0.0778331 0)
(0.413266 -0.0736593 0)
(0.532515 -0.0696199 0)
(0.647643 -0.0657479 6.904e-19)
(0.758534 -0.0620308 6.73248e-19)
(0.865161 -0.0584792 0)
(0.967538 -0.0551282 6.44395e-19)
(1.06572 -0.051949 0)
(1.15975 -0.0488962 0)
(1.24976 -0.046012 6.10707e-19)
(1.33588 -0.0433074 0)
(1.41821 -0.0407538 5.92443e-19)
(1.49686 -0.038337 0)
(1.57194 -0.0360502 0)
(1.6436 -0.0338904 5.69802e-19)
(1.71198 -0.0318554 0)
(1.77719 -0.0299339 5.57093e-19)
(1.83935 -0.0281182 0)
(1.89857 -0.0264001 0)
(1.95495 -0.0247763 0)
(2.00858 -0.0232299 -5.36193e-19)
(2.05954 -0.0217588 0)
(2.10789 -0.0203532 5.27703e-19)
(2.15365 -0.0189892 0)
(2.19677 -0.0176407 0)
(2.23713 -0.0162803 0)
(2.27444 -0.0148381 0)
(2.30821 -0.0132306 0)
(2.33705 -0.0112437 0)
(2.36027 -0.00824101 0)
(2.36732 -0.00225281 -1.03376e-18)
(2.36065 0.0110314 0)
(2.24759 0.029822 0)
(0.0111893 -0.065146 1.30929e-18)
(0.0280119 -0.0645872 -5.23468e-19)
(0.0341915 -0.0483222 0)
(0.0379679 -0.032086 1.51778e-19)
(0.0378706 -0.0159757 0)
(0.0339919 -0.00047251 5.74947e-20)
(0.0267626 0.0138586 -1.06761e-19)
(0.016248 0.0266035 -1.02279e-19)
(0.00236487 0.0376304 0)
(-0.0148314 0.0471947 -1.01392e-19)
(-0.0351428 0.0558943 -5.3055e-20)
(-0.0581223 0.0644396 0)
(-0.0877842 0.0719647 0)
(-0.122989 0.0752772 0)
(-0.161763 0.0786811 0)
(-0.203317 0.0834667 -6.70722e-20)
(-0.248307 0.0900707 0)
(-0.296921 0.0987555 1.21237e-19)
(-0.348385 0.109509 0)
(-0.400874 0.121713 0)
(-0.454311 0.133373 -9.30721e-20)
(-0.510009 0.141843 0)
(-0.567837 0.147217 7.87262e-20)
(-0.627367 0.152114 -3.74339e-20)
(-0.688269 0.1564 3.57383e-20)
(-0.749377 0.159319 -3.41849e-20)
(-0.810314 0.16099 -3.27396e-20)
(-0.870668 0.161452 0)
(-0.930089 0.160734 0)
(-0.9883 0.158922 2.90178e-20)
(-1.04509 0.156138 -2.77271e-20)
(-1.10028 0.15254 0)
(-1.15379 0.14828 0)
(-1.20553 0.143521 2.5328e-20)
(-1.25548 0.138406 0)
(-1.30364 0.13308 0)
(-1.35004 0.127656 -2.32882e-20)
(-1.39472 0.122241 0)
(-1.43775 0.116909 2.19837e-20)
(-1.4792 0.111729 -4.33811e-20)
(-1.51914 0.106736 0)
(-1.55765 0.10197 0)
(-1.59481 0.09744 -8.12832e-20)
(-1.63071 0.093163 -7.9798e-20)
(-1.66542 0.0891313 -7.83973e-20)
(-1.69901 0.08535 3.83748e-20)
(-1.73156 0.0818009 -3.80581e-20)
(-1.76313 0.078483 -1.1205e-19)
(-1.79377 0.0753744 7.34432e-20)
(-1.82356 0.0724723 3.63003e-20)
(-1.85255 0.0697522 0)
(-1.88078 0.067211 -3.52243e-20)
(-1.90831 0.064826 3.44703e-20)
(-1.93519 0.062596 0)
(-1.96146 0.0604999 0)
(-1.98716 0.0585396 0)
(-2.01233 0.0566967 -3.27307e-20)
(-2.03701 0.0549762 0)
(-2.06123 0.0533613 6.33851e-20)
(-2.08504 0.0518585 0)
(-2.10847 0.0504532 6.15167e-20)
(-2.13155 0.0491538 0)
(-2.15433 0.0479477 -5.96527e-20)
(-2.17683 0.0468445 0)
(-2.1991 0.0458325 5.77827e-20)
(-2.22117 0.0449213 -2.83701e-20)
(-2.24308 0.0441009 0)
(-2.26487 0.0433806 -5.49506e-20)
(-2.28658 0.0427515 -2.70429e-20)
(-2.30824 0.0422209 -2.65638e-20)
(-2.3299 0.0417813 0)
(-2.3516 0.0414375 -2.55193e-20)
(-2.37338 0.0411821 -2.51241e-20)
(-2.39526 0.0410151 0)
(-2.4173 0.0409273 2.41657e-20)
(-2.43953 0.0409156 -4.72781e-20)
(-2.46197 0.0409749 0)
(-2.48466 0.0411009 -2.27395e-20)
(-2.5076 0.0412842 0)
(-2.53082 0.0415123 6.52783e-20)
(-2.55433 0.0417792 0)
(-2.57812 0.0420714 -6.25021e-20)
(-2.60219 0.0423795 -2.04357e-20)
(-2.62653 0.042678 1.98122e-20)
(-2.6511 0.0429612 3.8727e-20)
(-2.67588 0.043207 -3.78476e-20)
(-2.70082 0.0434191 0)
(-2.72581 0.043576 0)
(-2.75075 0.0436784 0)
(-2.77552 0.0436844 1.04904e-19)
(-2.80008 0.0435363 3.44569e-20)
(-2.82436 0.0431956 -3.3778e-20)
(-2.8482 0.0426369 0)
(-2.87143 0.0418485 -3.18062e-20)
(-2.89387 0.0408 3.19057e-20)
(-2.91531 0.0394693 3.13343e-20)
(-2.93556 0.0378206 0)
(-2.95455 0.0358367 0)
(-2.97222 0.0334755 0)
(-2.9881 0.0307635 2.93684e-20)
(-3.00203 0.027756 0)
(-3.014 0.0243515 -5.67428e-20)
(-3.02374 0.0205215 -8.45751e-20)
(-3.03123 0.0163357 5.5618e-20)
(-3.03632 0.0118529 0)
(-3.03911 0.00718777 2.69933e-20)
(-3.03963 0.0024426 0)
(-3.03674 -0.00237122 5.34526e-20)
(-3.03009 -0.00739188 -2.61485e-20)
(-3.01936 -0.0126519 -2.59031e-20)
(-3.00443 -0.0180403 0)
(-2.9853 -0.0236753 -7.67453e-20)
(-2.9614 -0.029485 5.0246e-20)
(-2.93233 -0.03546 2.48635e-20)
(-2.8983 -0.0415761 0)
(-2.859 -0.0478187 2.36369e-20)
(-2.81425 -0.054118 6.84008e-20)
(-2.76386 -0.0605245 0)
(-2.70756 -0.0668427 4.19034e-20)
(-2.64562 -0.073129 3.9509e-20)
(-2.57784 -0.0794641 3.67997e-20)
(-2.5042 -0.0856848 0)
(-2.42478 -0.091798 0)
(-2.33954 -0.0977343 0)
(-2.24854 -0.103391 -1.10839e-20)
(-2.15195 -0.108775 -7.35111e-21)
(-2.04998 -0.113827 0)
(-1.9429 -0.118538 -3.40976e-21)
(-1.83101 -0.122854 3.84087e-21)
(-1.71466 -0.126759 0)
(-1.59426 -0.130207 2.26643e-20)
(-1.47021 -0.133192 5.97277e-20)
(-1.34298 -0.135686 -4.25682e-20)
(-1.21303 -0.137692 -4.81278e-20)
(-1.08084 -0.139213 0)
(-0.9469 -0.140272 0)
(-0.811677 -0.140893 0)
(-0.675642 -0.141113 -1.04919e-19)
(-0.539241 -0.140973 1.12607e-19)
(-0.402877 -0.140511 2.62363e-19)
(-0.266924 -0.139789 -1.50652e-19)
(-0.131468 -0.138931 1.58403e-19)
(0.0037973 -0.138081 1.76591e-19)
(0.138001 -0.137404 0)
(0.269313 -0.136072 0)
(0.39668 -0.133014 -1.91634e-19)
(0.520102 -0.128561 0)
(0.640145 -0.123493 0)
(0.756923 -0.118184 4.28229e-19)
(0.870273 -0.112813 0)
(0.980051 -0.10747 2.22595e-19)
(1.08616 -0.102216 -2.32413e-19)
(1.18854 -0.0970836 0)
(1.28718 -0.0921112 2.36658e-19)
(1.3821 -0.0873152 0)
(1.47333 -0.0826971 0)
(1.56094 -0.0782756 -2.51226e-19)
(1.64499 -0.0740617 5.04638e-19)
(1.72553 -0.0700321 -2.56584e-19)
(1.80269 -0.0661864 0)
(1.87658 -0.0625262 0)
(1.9473 -0.0590573 2.60445e-19)
(2.01495 -0.0557694 0)
(2.07964 -0.0526431 2.64193e-19)
(2.14148 -0.0496676 0)
(2.20056 -0.0468373 0)
(2.25697 -0.0441427 0)
(2.31079 -0.0415677 2.71813e-19)
(2.36209 -0.0390989 0)
(2.41093 -0.0367108 -2.73941e-19)
(2.45731 -0.0343627 0)
(2.50119 -0.0320016 0)
(2.54245 -0.0295455 5.52647e-19)
(2.58083 -0.0268661 -5.54922e-19)
(2.61589 -0.0237118 0)
(2.64668 -0.0196767 0)
(2.67225 -0.0134783 0)
(2.68922 -0.00274924 1.71794e-18)
(2.70615 0.0190785 0)
(2.6945 0.0587231 -1.18875e-18)
(0.00347589 -0.0939992 -1.11767e-21)
(0.0102376 -0.0765966 5.31231e-19)
(0.00777619 -0.0496837 0)
(0.00320052 -0.025449 -2.27214e-19)
(-0.00442931 -0.00276516 0)
(-0.014927 0.0186522 0)
(-0.0281126 0.0387476 1.56861e-22)
(-0.0440565 0.0574718 7.10239e-20)
(-0.0629578 0.0748735 6.80402e-20)
(-0.0850125 0.0911769 6.68067e-20)
(-0.110349 0.106736 0)
(-0.139079 0.121712 0)
(-0.17176 0.135433 -6.76025e-20)
(-0.208455 0.147247 -1.34373e-19)
(-0.249026 0.158554 1.31451e-19)
(-0.293017 0.170296 0)
(-0.340042 0.182858 1.22983e-19)
(-0.389449 0.196131 -5.90434e-20)
(-0.440287 0.209673 0)
(-0.491467 0.22265 1.06721e-19)
(-0.542444 0.233893 5.04928e-20)
(-0.593725 0.242516 -9.5857e-20)
(-0.646093 0.248956 -4.58988e-20)
(-0.699339 0.253573 0)
(-0.752499 0.256463 8.47487e-20)
(-0.80519 0.257613 8.16075e-20)
(-0.857198 0.257071 0)
(-0.908304 0.254923 7.58231e-20)
(-0.95835 0.251303 0)
(-1.00724 0.246387 7.07527e-20)
(-1.0549 0.240378 3.43419e-20)
(-1.1013 0.233495 0)
(-1.14641 0.225953 0)
(-1.19024 0.217955 0)
(-1.2328 0.209682 0)
(-1.2741 0.201295 0)
(-1.31417 0.192929 0)
(-1.35303 0.184698 5.67183e-20)
(-1.39071 0.176685 -8.33256e-20)
(-1.42726 0.168956 0)
(-1.4627 0.161553 0)
(-1.49708 0.154506 0)
(-1.53044 0.147827 1.83297e-22)
(-1.56281 0.141521 5.0579e-20)
(-1.59425 0.135581 9.92741e-20)
(-1.62478 0.130001 -9.76512e-20)
(-1.65446 0.124763 -4.79688e-20)
(-1.68332 0.119853 4.73867e-20)
(-1.7114 0.115252 -1.52665e-22)
(-1.73874 0.110942 4.58281e-20)
(-1.76539 0.106902 0)
(-1.79137 0.103117 4.4512e-20)
(-1.81673 0.0995673 -1.29191e-22)
(-1.8415 0.0962396 0)
(-1.86571 0.0931179 0)
(-1.8894 0.090192 -4.20449e-20)
(-1.9126 0.0874492 0)
(-1.93535 0.084883 0)
(-1.95767 0.0824838 4.01786e-20)
(-1.97959 0.0802473 7.93803e-20)
(-2.00114 0.0781665 -3.91932e-20)
(-2.02237 0.0762397 0)
(-2.04328 0.074462 3.80202e-20)
(-2.06393 0.0728334 0)
(-2.08434 0.07135 3.67056e-20)
(-2.10453 0.0700125 3.62538e-20)
(-2.12456 0.0688183 -7.11948e-20)
(-2.14444 0.0677678 -3.49425e-20)
(-2.16421 0.0668586 0)
(-2.18391 0.0660898 6.76239e-20)
(-2.20357 0.065458 0)
(-2.22323 0.0649605 9.78962e-20)
(-2.24291 0.0645924 6.40177e-20)
(-2.26265 0.0643467 6.28118e-20)
(-2.28248 0.0642157 -6.16059e-20)
(-2.30244 0.0641901 9.06772e-20)
(-2.32254 0.0642617 0)
(-2.34282 0.0644176 0)
(-2.36328 0.0646441 -5.68139e-20)
(-2.38394 0.064922 -8.35446e-20)
(-2.40481 0.0652364 0)
(-2.42589 0.0655645 2.67603e-20)
(-2.44717 0.0658864 0)
(-2.46864 0.0661725 -7.6675e-20)
(-2.49029 0.0664032 -2.617e-22)
(-2.51207 0.0665483 2.7897e-22)
(-2.53395 0.0665903 4.7796e-20)
(-2.55585 0.0665009 0)
(-2.57767 0.0662591 -4.57838e-20)
(-2.59932 0.0658187 -3.59012e-22)
(-2.62075 0.065124 0)
(-2.64191 0.0641291 0)
(-2.66268 0.0628038 0)
(-2.68292 0.0611198 4.18474e-20)
(-2.70248 0.059045 0)
(-2.72122 0.0565406 0)
(-2.739 0.0535672 0)
(-2.75571 0.0500955 0)
(-2.7712 0.0462051 0)
(-2.78517 0.0420027 3.76718e-20)
(-2.79743 0.0373154 0)
(-2.80792 0.0320872 3.72272e-20)
(-2.81641 0.0264099 3.68615e-20)
(-2.82273 0.0202908 -3.65046e-20)
(-2.82663 0.0137365 0)
(-2.82792 0.00676213 -3.58003e-20)
(-2.82628 -0.000568251 0)
(-2.82123 -0.00822255 -3.5052e-20)
(-2.81253 -0.0162736 3.46547e-20)
(-2.79984 -0.0247264 1.02258e-19)
(-2.78306 -0.0335609 0)
(-2.76196 -0.0427412 9.95276e-20)
(-2.73618 -0.0521419 3.24245e-20)
(-2.70547 -0.0618085 0)
(-2.66974 -0.0717576 6.25274e-20)
(-2.62875 -0.081863 6.08559e-20)
(-2.58237 -0.0920643 -8.82907e-20)
(-2.53039 -0.10232 0)
(-2.47262 -0.112578 -2.68555e-20)
(-2.40919 -0.12275 -2.52551e-20)
(-2.33989 -0.132863 -7.09128e-20)
(-2.2648 -0.142795 0)
(-2.18393 -0.15248 0)
(-2.09727 -0.161823 0)
(-2.00492 -0.170714 -1.46455e-20)
(-1.90704 -0.179096 0)
(-1.80384 -0.186897 0)
(-1.69561 -0.194062 2.10199e-21)
(-1.58267 -0.200529 -2.35418e-21)
(-1.46539 -0.206248 0)
(-1.34417 -0.21117 0)
(-1.21945 -0.215265 -3.59188e-20)
(-1.0917 -0.218507 0)
(-0.961408 -0.220893 6.03174e-20)
(-0.82907 -0.222434 6.99766e-20)
(-0.69518 -0.223162 0)
(-0.560227 -0.223119 0)
(-0.424683 -0.222358 -1.12599e-19)
(-0.288991 -0.220951 -4.19136e-21)
(-0.153533 -0.218999 -4.32307e-21)
(-0.0184768 -0.216648 0)
(0.115588 -0.213873 -3.40564e-19)
(0.247808 -0.210471 0)
(0.377622 -0.206431 0)
(0.504465 -0.201834 0)
(0.627903 -0.196564 2.13826e-19)
(0.747883 -0.190524 0)
(0.864514 -0.183895 -4.58273e-19)
(0.977779 -0.17691 -2.41693e-19)
(1.08758 -0.169743 0)
(1.19382 -0.162506 -2.584e-19)
(1.29644 -0.155288 0)
(1.39541 -0.14815 0)
(1.49073 -0.141151 -8.35904e-19)
(1.58242 -0.134329 5.68827e-19)
(1.67051 -0.127699 0)
(1.75509 -0.121285 5.9303e-19)
(1.83619 -0.11512 -3.04068e-19)
(1.91394 -0.109202 0)
(1.98843 -0.103528 0)
(2.05978 -0.0981007 0)
(2.12809 -0.0929232 -9.6296e-19)
(2.19346 -0.0879888 0)
(2.25599 -0.0832784 -3.29475e-19)
(2.3158 -0.0787794 0)
(2.37297 -0.0744842 0)
(2.4276 -0.070378 0)
(2.47976 -0.0664423 0)
(2.52953 -0.0626557 0)
(2.57696 -0.0589757 0)
(2.62205 -0.0553457 -6.96439e-19)
(2.66478 -0.0516837 0)
(2.70503 -0.0478644 -3.53857e-19)
(2.74259 -0.0436945 1.06709e-18)
(2.77712 -0.0388308 0)
(2.80793 -0.0326751 0)
(2.83445 -0.0239339 -7.29126e-19)
(2.85429 -0.0103767 -7.40378e-19)
(2.8724 0.0135744 7.44598e-19)
(2.87765 0.0578469 7.69168e-19)
(-0.00605746 -0.0972586 -1.71877e-18)
(-0.00866108 -0.0668149 -6.44611e-19)
(-0.0182082 -0.0343178 -2.47695e-19)
(-0.0298323 -0.00493599 -9.02888e-20)
(-0.0436234 0.0225705 0)
(-0.0595036 0.0487179 1.29086e-19)
(-0.0775001 0.0736823 -5.85953e-20)
(-0.0977415 0.0975368 0)
(-0.120407 0.120354 -5.24364e-20)
(-0.145646 0.14224 0)
(-0.173538 0.163299 9.83258e-20)
(-0.204118 0.183503 0)
(-0.237465 0.202606 4.72817e-20)
(-0.273661 0.220413 9.24528e-20)
(-0.312667 0.23729 -9.00577e-20)
(-0.354188 0.253601 0)
(-0.397764 0.269478 -8.46707e-20)
(-0.442815 0.284756 0)
(-0.488715 0.299067 0)
(-0.534902 0.311909 -7.5911e-20)
(-0.581037 0.32272 0)
(-0.627062 0.331098 2.33357e-23)
(-0.67306 0.337075 0)
(-0.718928 0.340761 0)
(-0.764431 0.342208 -7.43767e-25)
(-0.809385 0.341511 -6.05735e-20)
(-0.853662 0.338825 -5.84806e-20)
(-0.897178 0.334344 -5.65514e-20)
(-0.939874 0.328303 0)
(-0.981707 0.320945 -1.06095e-19)
(-1.02265 0.312512 0)
(-1.0627 0.303244 -4.99951e-20)
(-1.10185 0.293363 0)
(-1.14008 0.283078 0)
(-1.17739 0.272574 4.61665e-20)
(-1.2138 0.262012 0)
(-1.2493 0.251528 -4.40284e-20)
(-1.2839 0.241233 -6.79539e-23)
(-1.3176 0.231214 8.44027e-20)
(-1.35042 0.221534 -8.26491e-20)
(-1.38236 0.212241 0)
(-1.41345 0.203363 0)
(-1.44369 0.194917 -3.90178e-20)
(-1.47312 0.186909 0)
(-1.50174 0.179336 -3.78496e-20)
(-1.52959 0.172188 3.72435e-20)
(-1.55669 0.165452 3.66631e-20)
(-1.58306 0.159111 0)
(-1.60874 0.153146 -3.55671e-20)
(-1.63376 0.147537 -3.50462e-20)
(-1.65813 0.142264 6.89767e-20)
(-1.68189 0.137308 -3.40471e-20)
(-1.70508 0.132648 -3.35648e-20)
(-1.7277 0.128268 0)
(-1.7498 0.124152 0)
(-1.7714 0.120286 3.21666e-20)
(-1.79253 0.116656 0)
(-1.81322 0.113253 0)
(-1.83348 0.110068 -6.16244e-20)
(-1.85335 0.107094 -6.07307e-20)
(-1.87286 0.104325 0)
(-1.89202 0.101755 0)
(-1.91088 0.0993823 0)
(-1.92945 0.0972038 0)
(-1.94777 0.0952171 -5.6262e-20)
(-1.96587 0.0934209 5.52987e-20)
(-1.98377 0.0918135 5.44564e-20)