# f_l  POINT_DATA 1856
#  x  y  z  f_l
0.000375 0.000375 0 0.5
0.0015 0.00025 5.72608e-20 0.5
0.00025 0.0015 0 0.5
0.0025 0.00025 -1.6386e-20 0.5
0.00025 0.0025 1.89735e-19 0.5
0.00025 0.00025 0.0025 0.5
0.00025 0.00025 -0.0025 0.5
0.00075 0.00025 0.0025 0.5
0.00025 0.00075 0.0025 0.5
0.00025 0.00075 -0.0025 0.5
0.00075 0.00025 -0.0025 0.5
0.001 0.0005 -0.0025 0.5
0.001 0.0005 0.0025 0.5
0.0005 0.001 0.0025 0.5
0.0005 0.001 -0.0025 0.5
0.00125 0.00025 0.0025 0.5
0.00025 0.00125 -0.0025 0.5
0.00125 0.00025 -0.0025 0.5
0.00025 0.00125 0.0025 0.5
0.00175 0.00025 0.0025 0.5
0.00025 0.00175 -0.0025 0.5
0.00175 0.00025 -0.0025 0.5
0.00025 0.00175 0.0025 0.5
0.002 0.0005 -0.0025 0.5
0.002 0.0005 0.0025 0.5
0.0005 0.002 0.0025 0.5
0.0005 0.002 -0.0025 0.5
0.00025 0.00225 0.0025 0.5
0.00025 0.00225 -0.0025 0.5
0.00225 0.00025 0.0025 0.5
0.00225 0.00025 -0.0025 0.5
0.0035 0.00025 -1.38704e-19 0.5
0.00025 0.0035 -1.89735e-19 0.5
0.00025 0.00275 0.0025 0.5
0.00025 0.00275 -0.0025 0.5
0.00275 0.00025 0.0025 0.5
0.00275 0.00025 -0.0025 0.5
0.0005 0.003 -0.0025 0.5
0.003 0.0005 -0.0025 0.5
0.003 0.0005 0.0025 0.5
0.0005 0.003 0.0025 0.5
0.00025 0.00325 0.0025 0.5
0.00325 0.00025 0.0025 0.5
0.00025 0.00325 -0.0025 0.5
0.00325 0.00025 -0.0025 0.5
0.0045 0.00025 -5.72243e-20 0.5
0.00025 0.0045 0 0.5
0.00025 0.00375 0.0025 0.5
0.00375 0.00025 0.0025 0.5
0.00025 0.00375 -0.0025 0.5
0.00375 0.00025 -0.0025 0.5
0.004 0.0005 -0.0025 0.5
0.004 0.0005 0.0025 0.5
0.0005 0.004 0.0025 0.5
0.0005 0.004 -0.0025 0.5
0.00025 0.00425 0.0025 0.5
0.00425 0.00025 0.0025 0.5
0.00025 0.00425 -0.0025 0.5
0.00425 0.00025 -0.0025 0.5
0.00475 0.00025 0.0025 0.5
0.00475 0.00025 -0.0025 0.5
0.00025 0.00475 0.0025 0.5
0.00025 0.00475 -0.0025 0.5
0.00025 0.0055 0 0.5
0.0055 0.00025 -2.36936e-21 0.5
0.005 0.0005 -0.0025 0.5
0.005 0.0005 0.0025 0.5
0.0005 0.005 0.0025 0.5
0.0005 0.005 -0.0025 0.5
0.00025 0.00525 -0.0025 0.5
0.00525 0.00025 0.0025 0.5
0.00025 0.00525 0.0025 0.5
0.00525 0.00025 -0.0025 0.5
0.00025 0.00575 -0.0025 0.5
0.00575 0.00025 0.0025 0.5
0.00575 0.00025 -0.0025 0.5
0.00025 0.00575 0.0025 0.5
0.00643982 0.000584319 -9.01853e-20 0.5
0.00025 0.0065 0 0.5
0.0005 0.006 0.0025 0.5
0.0005 0.006 -0.0025 0.5
0.006 0.000643554 -0.0025 0.5
0.006 0.000643554 0.0025 0.5
0.00025 0.00625 0.0025 0.5
0.00025 0.00625 -0.0025 0.5
0.0067259 0.00151256 2.66118e-19 0.5
0.00643031 0.00056969 0.0025 0.5
0.00643031 0.00056969 -0.0025 0.5
0.00655387 0.001 0.0025 0.5
0.00655387 0.001 -0.0025 0.5
0.00025 0.00675 0.0025 0.5
0.00025 0.00675 -0.0025 0.5
0.00677564 0.0025 1.858e-20 0.5
0.00676832 0.00223168 -0.00134158 0.5
0.00676832 0.00223168 0.00134158 0.5
0.0067031 0.0012969 -0.0025 0.5
0.0067031 0.0012969 0.0025 0.5
0.00674077 0.00174077 0.0025 0.5
0.00674077 0.00174077 -0.0025 0.5
0.00667143 0.002 0.0025 0.5
0.00667143 0.002 -0.0025 0.5
0.0005 0.007 0.0025 0.5
0.0005 0.007 -0.0025 0.5
0.00678135 0.00278135 -0.00140673 0.5
0.00678135 0.00278135 0.00140673 0.5
0.00025 0.0075 -2.43945e-19 0.5
0.00676832 0.00223168 0.0025 0.5
0.00676832 0.00223168 -0.0025 0.5
0.00680389 0.0035 -2.49824e-19 0.5
0.00679807 0.00320193 0.00149037 0.5
0.00679807 0.00320193 -0.00149037 0.5
0.00025 0.00725 0.0025 0.5
0.00025 0.00725 -0.0025 0.5
0.00678135 0.00278135 0.0025 0.5
0.00678135 0.00278135 -0.0025 0.5
0.00670427 0.003 0.0025 0.5
0.00670427 0.003 -0.0025 0.5
0.00679807 0.00320193 -0.0025 0.5
0.00679807 0.00320193 0.0025 0.5
0.00680859 0.00380859 0.00154294 0.5
0.00680859 0.00380859 -0.00154294 0.5
0.00025 0.00775 0.0025 0.5
0.00025 0.00775 -0.0025 0.5
0.00681975 0.00418025 0.00159874 0.5
0.00681975 0.00418025 -0.00159874 0.5
0.00682448 0.0045 3.26404e-19 0.5
0.00680859 0.00380859 -0.0025 0.5
0.00680859 0.00380859 0.0025 0.5
0.00672922 0.004 0.0025 0.5
0.00672922 0.004 -0.0025 0.5
0.00681975 0.00418025 0.0025 0.5
0.00681975 0.00418025 -0.0025 0.5
0.0005 0.008 0.0025 0.5
0.0005 0.008 -0.0025 0.5
0.00025 0.0085 2.43945e-19 0.5
0.00682839 0.00482839 -0.00164196 0.5
0.00682839 0.00482839 0.00164196 0.5
0.00025 0.00825 0.0025 0.5
0.00025 0.00825 -0.0025 0.5
0.00682839 0.00482839 0.0025 0.5
0.00682839 0.00482839 -0.0025 0.5
0.0068363 0.0051637 -0.00168148 0.5
0.0068363 0.0051637 0.00168148 0.5
0.00674899 0.005 0.0025 0.5
0.00674899 0.005 -0.0025 0.5
0.00684021 0.0055 -3.8568e-20 0.5
0.0068363 0.0051637 -0.0025 0.5
0.0068363 0.0051637 0.0025 0.5
0.00025 0.00875 -0.0025 0.5
0.00025 0.00875 0.0025 0.5
0.00684341 0.00584341 -0.00171707 0.5
0.00684341 0.00584341 0.00171707 0.5
0.00684341 0.00584341 0.0025 0.5
0.00684341 0.00584341 -0.0025 0.5
0.0005 0.009 0.0025 0.5
0.0005 0.009 -0.0025 0.5
0.00684909 0.00615091 0.00174546 0.5
0.00684909 0.00615091 -0.00174546 0.5
0.00676488 0.006 0.0025 0.5
0.00676488 0.006 -0.0025 0.5
0.00685229 0.0065 2.10935e-20 0.5
0.00025 0.0095 0 0.5
0.00684909 0.00615091 0.0025 0.5
0.00684909 0.00615091 -0.0025 0.5
0.00025 0.00925 -0.0025 0.5
0.00025 0.00925 0.0025 0.5
0.00685471 0.00685471 -0.00177354 0.5
0.00685471 0.00685471 0.00177354 0.5
0.00685471 0.00685471 0.0025 0.5
0.00685471 0.00685471 -0.0025 0.5
0.00677722 0.007 0.0025 0.5
0.00677722 0.007 -0.0025 0.5
0.0068586 0.0071414 0.00179298 0.5
0.0068586 0.0071414 -0.00179298 0.5
0.00025 0.00975 0.0025 0.5
0.00025 0.00975 -0.0025 0.5
0.00686101 0.0075 8.41847e-20 0.5
0.0068586 0.0071414 0.0025 0.5
0.0068586 0.0071414 -0.0025 0.5
0.0005 0.01 0.0025 0.5
0.0005 0.01 -0.0025 0.5
0.00025 0.0105 0 0.5
0.00025 0.01025 -0.0025 0.5
0.00025 0.01025 0.0025 0.5
0.00686279 0.00786279 -0.00181393 0.5
0.00686279 0.00786279 0.00181393 0.5
0.00686279 0.00786279 0.0025 0.5
0.00686279 0.00786279 -0.0025 0.5
0.00678631 0.008 0.0025 0.5
0.00678631 0.008 -0.0025 0.5
0.00686543 0.00813457 -0.00182716 0.5
0.00686543 0.00813457 0.00182716 0.5
0.0068672 0.0085 7.63311e-19 0.5
0.00686543 0.00813457 -0.0025 0.5
0.00686543 0.00813457 0.0025 0.5
0.00025 0.01075 -0.0025 0.5
0.00025 0.01075 0.0025 0.5
0.0005 0.011 0.0025 0.5
0.0005 0.011 -0.0025 0.5
0.0068687 0.0088687 -0.00184352 0.5
0.0068687 0.0088687 0.00184352 0.5
0.0068687 0.0088687 -0.0025 0.5
0.0068687 0.0088687 0.0025 0.5
0.00025 0.0115 0 0.5
0.00025 0.01125 0.0025 0.5
0.00025 0.01125 -0.0025 0.5
0.00679336 0.009 -0.0025 0.5
0.00679336 0.009 0.0025 0.5
0.00687082 0.00912918 -0.00185408 0.5
0.00687082 0.00912918 0.00185408 0.5
0.00687082 0.00912918 -0.0025 0.5
0.00687082 0.00912918 0.0025 0.5
0.00687231 0.0095 -4.46099e-19 0.5
0.00025 0.01175 0.0025 0.5
0.00025 0.01175 -0.0025 0.5
0.00687311 0.00987311 0.00186553 0.5
0.00687311 0.00987311 -0.00186553 0.5
0.0005 0.012 0.0025 0.5
0.0005 0.012 -0.0025 0.5
0.00687311 0.00987311 -0.0025 0.5
0.00687311 0.00987311 0.0025 0.5
0.00679827 0.01 0.0025 0.5
0.00679827 0.01 -0.0025 0.5
0.00687418 0.0101258 0.00187089 0.5
0.00687418 0.0101258 -0.00187089 0.5
0.00687418 0.0101258 0.0025 0.5
0.00687418 0.0101258 -0.0025 0.5
0.00025 0.0125 0 0.5
0.00025 0.01225 -0.0025 0.5
0.00025 0.01225 0.0025 0.5
0.00687497 0.0105 1.23232e-19 0.5
0.00025 0.01275 -0.0025 0.5
0.00025 0.01275 0.0025 0.5
0.00687518 0.0108752 0.00187592 0.5
0.00687518 0.0108752 -0.00187592 0.5
0.00687518 0.0108752 0.0025 0.5
0.00687518 0.0108752 -0.0025 0.5
0.00680042 0.011 0.0025 0.5
0.00680042 0.011 -0.0025 0.5
0.00687547 0.0111245 0.00187736 0.5
0.00687547 0.0111245 -0.00187736 0.5
0.0005 0.013 0.0025 0.5
0.0005 0.013 -0.0025 0.5
0.00687547 0.0111245 0.0025 0.5
0.00687547 0.0111245 -0.0025 0.5
0.00687569 0.0115 8.60918e-20 0.5
0.00025 0.01325 0.0025 0.5
0.00025 0.01325 -0.0025 0.5
0.00025 0.0135 0 0.5
0.00687595 0.0118759 -0.00187973 0.5
0.00687595 0.0118759 0.00187973 0.5
0.00687595 0.0118759 0.0025 0.5
0.00687595 0.0118759 -0.0025 0.5
0.00025 0.01375 0.0025 0.5
0.00025 0.01375 -0.0025 0.5
0.00680143 0.012 -0.0025 0.5
0.00680143 0.012 0.0025 0.5
0.00687629 0.0121237 0.00188143 0.5
0.00687629 0.0121237 -0.00188143 0.5
0.00687629 0.0121237 0.0025 0.5
0.00687629 0.0121237 -0.0025 0.5
0.0005 0.014 0.0025 0.5
0.0005 0.014 -0.0025 0.5
0.00687654 0.0125 4.41806e-19 0.5
0.00025 0.01425 0.0025 0.5
0.00025 0.01425 -0.0025 0.5
0.00025 0.0145 0 0.5
0.00687678 0.0128768 -0.00188388 0.5
0.00687678 0.0128768 0.00188388 0.5
0.00687678 0.0128768 0.0025 0.5
0.00687678 0.0128768 -0.0025 0.5
0.00680247 0.013 0.0025 0.5
0.00680247 0.013 -0.0025 0.5
0.00687708 0.0131229 0.00188539 0.5
0.00687708 0.0131229 -0.00188539 0.5
0.00025 0.01475 0.0025 0.5
0.00025 0.01475 -0.0025 0.5
0.00687708 0.0131229 -0.0025 0.5
0.00687708 0.0131229 0.0025 0.5
0.00687731 0.0135 -4.81295e-19 0.5
0.0005 0.015 0.0025 0.5
0.0005 0.015 -0.0025 0.5
0.00025 0.01525 0.0025 0.5
0.00025 0.01525 -0.0025 0.5
0.00025 0.0155 0 0.5
0.00687743 0.0138774 -0.00188713 0.5
0.00687743 0.0138774 0.00188713 0.5
0.00687743 0.0138774 -0.0025 0.5
0.00687743 0.0138774 0.0025 0.5
0.00680322 0.014 0.0025 0.5
0.00680322 0.014 -0.0025 0.5
0.00687758 0.0141224 0.00188789 0.5
0.00687758 0.0141224 -0.00188789 0.5
0.00687758 0.0141224 0.0025 0.5
0.00687758 0.0141224 -0.0025 0.5
0.00025 0.01575 0.0025 0.5
0.00025 0.01575 -0.0025 0.5
0.0068777 0.0145 2.5821e-20 0.5
0.0005 0.016 0.0025 0.5
0.0005 0.016 -0.0025 0.5
0.00025 0.01625 0.0025 0.5
0.00025 0.01625 -0.0025 0.5
0.0068776 0.0148776 0.00188799 0.5
0.0068776 0.0148776 -0.00188799 0.5
0.00025 0.0165 0 0.5
0.0068776 0.0148776 0.0025 0.5
0.0068776 0.0148776 -0.0025 0.5
0.00680326 0.015 0.0025 0.5
0.00680326 0.015 -0.0025 0.5
0.00687747 0.0151225 0.00188735 0.5
0.00687747 0.0151225 -0.00188735 0.5
0.00687747 0.0151225 0.0025 0.5
0.00687747 0.0151225 -0.0025 0.5
0.00025 0.01675 0.0025 0.5
0.00025 0.01675 -0.0025 0.5
0.00687737 0.0155 -2.88499e-20 0.5
0.0005 0.017 0.0025 0.5
0.0005 0.017 -0.0025 0.5
0.00687721 0.0158772 -0.00188603 0.5
0.00687721 0.0158772 0.00188603 0.5
0.00025 0.01725 -0.0025 0.5
0.00025 0.01725 0.0025 0.5
0.00687721 0.0158772 0.0025 0.5
0.00687721 0.0158772 -0.0025 0.5
0.00025 0.0175 0 0.5
0.00680269 0.016 0.0025 0.5
0.00680269 0.016 -0.0025 0.5
0.00687699 0.016123 0.00188495 0.5
0.00687699 0.016123 -0.00188495 0.5
0.00687699 0.016123 0.0025 0.5
0.00687699 0.016123 -0.0025 0.5
0.00687682 0.0165 4.3001e-21 0.5
0.00025 0.01775 -0.0025 0.5
0.00025 0.01775 0.0025 0.5
0.0005 0.018 0.0025 0.5
0.0005 0.018 -0.0025 0.5
0.00687687 0.0168769 -0.00188437 0.5
0.00687687 0.0168769 0.00188437 0.5
0.00687687 0.0168769 -0.0025 0.5
0.00687687 0.0168769 0.0025 0.5
0.00025 0.01825 0.0025 0.5
0.00025 0.01825 -0.0025 0.5
0.00680245 0.017 0.0025 0.5
0.00680245 0.017 -0.0025 0.5
0.00025 0.0185 -4.33681e-19 0.5
0.00687694 0.0171231 0.0018847 0.5
0.00687694 0.0171231 -0.0018847 0.5
0.00687694 0.0171231 0.0025 0.5
0.00687694 0.0171231 -0.0025 0.5
0.00687699 0.0175 5.2279e-19 0.5
0.00025 0.01875 0.0025 0.5
0.00025 0.01875 -0.0025 0.5
0.0005 0.019 0.0025 0.5
0.0005 0.019 -0.0025 0.5
0.00687656 0.0178766 -0.00188279 0.5
0.00687656 0.0178766 0.00188279 0.5
0.00687656 0.0178766 0.0025 0.5
0.00687656 0.0178766 -0.0025 0.5
0.00680163 0.018 -0.0025 0.5
0.00680163 0.018 0.0025 0.5
0.00025 0.01925 0.0025 0.5
0.00025 0.01925 -0.0025 0.5
0.00687599 0.018124 0.00187995 0.5
0.00687599 0.018124 -0.00187995 0.5
0.00025 0.0195 4.33681e-19 0.5
0.00687599 0.018124 0.0025 0.5
0.00687599 0.018124 -0.0025 0.5
0.00687556 0.0185 -1.88929e-19 0.5
0.00025 0.01975 0.0025 0.5
0.00025 0.01975 -0.0025 0.5
0.0005 0.02 0.0025 0.5
0.0005 0.02 -0.0025 0.5
0.00687551 0.0188755 -0.00187753 0.5
0.00687551 0.0188755 0.00187753 0.5
0.00687551 0.0188755 0.0025 0.5
0.00687551 0.0188755 -0.0025 0.5
0.0068006 0.019 0.0025 0.5
0.0068006 0.019 -0.0025 0.5
0.00025 0.02025 0.0025 0.5
0.00025 0.02025 -0.0025 0.5
0.00687544 0.0191246 0.00187719 0.5
0.00687544 0.0191246 -0.00187719 0.5
0.00687544 0.0191246 0.0025 0.5
0.00687544 0.0191246 -0.0025 0.5
0.00025 0.0205 0 0.5
0.00687539 0.0195 2.93942e-19 0.5
0.00025 0.02075 -0.0025 0.5
0.00025 0.02075 0.0025 0.5
0.00687546 0.0198755 0.0018773 0.5
0.00687546 0.0198755 -0.0018773 0.5
0.0005 0.021 0.0025 0.5
0.0005 0.021 -0.0025 0.5
0.00687546 0.0198755 0.0025 0.5
0.00687546 0.0198755 -0.0025 0.5
0.00680065 0.02 0.0025 0.5
0.00680065 0.02 -0.0025 0.5
0.00687556 0.0201244 0.00187778 0.5
0.00687556 0.0201244 -0.00187778 0.5
0.00025 0.02125 0.0025 0.5
0.00025 0.02125 -0.0025 0.5
0.00687556 0.0201244 -0.0025 0.5
0.00687556 0.0201244 0.0025 0.5
0.00025 0.0215 0 0.5
0.00687563 0.0205 -1.47131e-19 0.5
0.00025 0.02175 0.0025 0.5
0.00025 0.02175 -0.0025 0.5
0.0068753 0.0208753 -0.0018765 0.5
0.0068753 0.0208753 0.0018765 0.5
0.0068753 0.0208753 0.0025 0.5
0.0068753 0.0208753 -0.0025 0.5
0.0005 0.022 0.0025 0.5
0.0005 0.022 -0.0025 0.5
0.0068001 0.021 0.0025 0.5
0.0068001 0.021 -0.0025 0.5
0.00687486 0.0211251 -0.00187431 0.5
0.00687486 0.0211251 0.00187431 0.5
0.00687486 0.0211251 0.0025 0.5
0.00687486 0.0211251 -0.0025 0.5
0.00025 0.02225 0.0025 0.5
0.00025 0.02225 -0.0025 0.5
0.00025 0.0225 0 0.5
0.00687453 0.0215 -2.01696e-20 0.5
0.00025 0.02275 0.0025 0.5
0.00025 0.02275 -0.0025 0.5
0.00687453 0.0218745 0.00187267 0.5
0.00687453 0.0218745 -0.00187267 0.5
0.00687453 0.0218745 0.0025 0.5
0.00687453 0.0218745 -0.0025 0.5
0.0005 0.023 0.0025 0.5
0.0005 0.023 -0.0025 0.5
0.00679941 0.022 0.0025 0.5
0.00679941 0.022 -0.0025 0.5
0.00687454 0.0221255 -0.00187269 0.5
0.00687454 0.0221255 0.00187269 0.5
0.00687454 0.0221255 -0.0025 0.5
0.00687454 0.0221255 0.0025 0.5
0.00025 0.02325 0.0025 0.5
0.00025 0.02325 -0.0025 0.5
0.00025 0.0235 0 0.5
0.00687454 0.0225 3.79915e-19 0.5
0.00025 0.02375 0.0025 0.5
0.00025 0.02375 -0.0025 0.5
0.00687484 0.0228748 -0.0018742 0.5
0.00687484 0.0228748 0.0018742 0.5
0.00687484 0.0228748 -0.0025 0.5
0.00687484 0.0228748 0.0025 0.5
0.00680005 0.023 0.0025 0.5
0.00680005 0.023 -0.0025 0.5
0.0005 0.024 0.0025 0.5
0.0005 0.024 -0.0025 0.5
0.00687524 0.0231248 0.00187619 0.5
0.00687524 0.0231248 -0.00187619 0.5
0.00687524 0.0231248 0.0025 0.5
0.00687524 0.0231248 -0.0025 0.5
0.00025 0.02425 0.0025 0.5
0.00025 0.02425 -0.0025 0.5
0.00687554 0.0235 -1.16111e-19 0.5
0.00025 0.0245 0 0.5
0.00025 0.02475 0.0025 0.5
0.00025 0.02475 -0.0025 0.5
0.0068755 0.0238755 0.0018775 0.5
0.0068755 0.0238755 -0.0018775 0.5
0.0068755 0.0238755 0.0025 0.5
0.0068755 0.0238755 -0.0025 0.5
0.00680061 0.024 -0.0025 0.5
0.00680061 0.024 0.0025 0.5
0.0005 0.025 0.0025 0.5
0.0005 0.025 -0.0025 0.5
0.00687545 0.0241245 -0.00187725 0.5
0.00687545 0.0241245 0.00187725 0.5
0.00687545 0.0241245 -0.0025 0.5
0.00687545 0.0241245 0.0025 0.5
0.00025 0.02525 -0.0025 0.5
0.00025 0.02525 0.0025 0.5
0.00687541 0.0245 9.36742e-20 0.5
0.00025 0.0255 0 0.5
0.00025 0.02575 -0.0025 0.5
0.00025 0.02575 0.0025 0.5
0.00687541 0.0248754 -0.00187707 0.5
0.00687541 0.0248754 0.00187707 0.5
0.00687541 0.0248754 0.0025 0.5
0.00687541 0.0248754 -0.0025 0.5
0.00680053 0.025 0.0025 0.5
0.00680053 0.025 -0.0025 0.5
0.00687542 0.0251246 0.00187708 0.5
0.00687542 0.0251246 -0.00187708 0.5
0.0005 0.026 0.0025 0.5
0.0005 0.026 -0.0025 0.5
0.00687542 0.0251246 -0.0025 0.5
0.00687542 0.0251246 0.0025 0.5
0.00025 0.02625 0.0025 0.5
0.00025 0.02625 -0.0025 0.5
0.00687542 0.0255 9.61387e-19 0.5
0.00025 0.0265 0 0.5
0.00687553 0.0258755 -0.00187765 0.5
0.00687553 0.0258755 0.00187765 0.5
0.00025 0.02675 0.0025 0.5
0.00025 0.02675 -0.0025 0.5
0.00687553 0.0258755 0.0025 0.5
0.00687553 0.0258755 -0.0025 0.5
0.00680078 0.026 -0.0025 0.5
0.00680078 0.026 0.0025 0.5
0.00687568 0.0261243 0.00187841 0.5
0.00687568 0.0261243 -0.00187841 0.5
0.0005 0.027 0.0025 0.5
0.0005 0.027 -0.0025 0.5
0.00687568 0.0261243 0.0025 0.5
0.00687568 0.0261243 -0.0025 0.5
0.00025 0.02725 0.0025 0.5
0.00025 0.02725 -0.0025 0.5
0.0068758 0.0265 -9.90921e-19 0.5
0.00025 0.0275 0 0.5
0.00687553 0.0268755 -0.00187763 0.5
0.00687553 0.0268755 0.00187763 0.5
0.00687553 0.0268755 0.0025 0.5
0.00687553 0.0268755 -0.0025 0.5
0.00025 0.02775 0.0025 0.5
0.00025 0.02775 -0.0025 0.5
0.00680044 0.027 -0.0025 0.5
0.00680044 0.027 0.0025 0.5
0.00687517 0.0271248 -0.00187583 0.5
0.00687517 0.0271248 0.00187583 0.5
0.00687517 0.0271248 -0.0025 0.5
0.00687517 0.0271248 0.0025 0.5
0.0005 0.028 0.0025 0.5
0.0005 0.028 -0.0025 0.5
0.0068749 0.0275 4.3642e-20 0.5
0.00025 0.02825 0.0025 0.5
0.00025 0.02825 -0.0025 0.5
0.00025 0.0285 0 0.5
0.00687513 0.0278751 -0.00187567 0.5
0.00687513 0.0278751 0.00187567 0.5
0.00687513 0.0278751 -0.0025 0.5
0.00687513 0.0278751 0.0025 0.5
0.00025 0.02875 0.0025 0.5
0.00025 0.02875 -0.0025 0.5
0.00680037 0.028 0.0025 0.5
0.00680037 0.028 -0.0025 0.5
0.00687545 0.0281245 0.00187725 0.5
0.00687545 0.0281245 -0.00187725 0.5
0.00687545 0.0281245 0.0025 0.5
0.00687545 0.0281245 -0.0025 0.5
0.0005 0.029 0.0025 0.5
0.0005 0.029 -0.0025 0.5
0.00687569 0.0285 8.69633e-20 0.5
0.00025 0.02925 0.0025 0.5
0.00025 0.02925 -0.0025 0.5
0.00025 0.0295 -1.6263e-19 0.5
0.00687568 0.0288757 -0.0018784 0.5
0.00687568 0.0288757 0.0018784 0.5
0.00687568 0.0288757 0.0025 0.5
0.00687568 0.0288757 -0.0025 0.5
0.00025 0.02975 0.0025 0.5
0.00025 0.02975 -0.0025 0.5
0.00680087 0.029 0.0025 0.5
0.00680087 0.029 -0.0025 0.5
0.00687567 0.0291243 0.00187836 0.5
0.00687567 0.0291243 -0.00187836 0.5
0.00687567 0.0291243 0.0025 0.5
0.00687567 0.0291243 -0.0025 0.5
0.0005 0.03 0.0025 0.5
0.0005 0.03 -0.0025 0.5
0.00687566 0.0295 6.77937e-19 0.5
0.00025 0.03025 0.0025 0.5
0.00025 0.03025 -0.0025 0.5
0.00025 0.0305 0 0.5
0.00687573 0.0298757 -0.00187866 0.5
0.00687573 0.0298757 0.00187866 0.5
0.00687573 0.0298757 0.0025 0.5
0.00687573 0.0298757 -0.0025 0.5
0.00025 0.03075 0.0025 0.5
0.00025 0.03075 -0.0025 0.5
0.006801 0.03 -0.0025 0.5
0.006801 0.03 0.0025 0.5
0.00687582 0.0301242 -0.00187912 0.5
0.00687582 0.0301242 0.00187912 0.5
0.00687582 0.0301242 0.0025 0.5
0.00687582 0.0301242 -0.0025 0.5
0.0005 0.031 0.0025 0.5
0.0005 0.031 -0.0025 0.5
0.00687589 0.0305 -1.00566e-18 0.5
0.00025 0.03125 0.0025 0.5
0.00025 0.03125 -0.0025 0.5
0.00025 0.0315 0 0.5
0.00687603 0.030876 0.00188014 0.5
0.00687603 0.030876 -0.00188014 0.5
0.00687603 0.030876 0.0025 0.5
0.00687603 0.030876 -0.0025 0.5
0.00680143 0.031 0.0025 0.5
0.00680143 0.031 -0.0025 0.5
0.00025 0.03175 0.0025 0.5
0.00025 0.03175 -0.0025 0.5
0.0068762 0.0311238 0.00188102 0.5
0.0068762 0.0311238 -0.00188102 0.5
0.0068762 0.0311238 0.0025 0.5
0.0068762 0.0311238 -0.0025 0.5
0.0005 0.032 0.0025 0.5
0.0005 0.032 -0.0025 0.5
0.00687634 0.0315 2.73548e-19 0.5
0.00025 0.03225 0.0025 0.5
0.00025 0.03225 -0.0025 0.5
0.00025 0.0325 0 0.5
0.00687635 0.0318763 -0.00188173 0.5
0.00687635 0.0318763 0.00188173 0.5
0.00687635 0.0318763 0.0025 0.5
0.00687635 0.0318763 -0.0025 0.5
0.00680173 0.032 -0.0025 0.5
0.00680173 0.032 0.0025 0.5
0.00025 0.03275 0.0025 0.5
0.00025 0.03275 -0.0025 0.5
0.00687636 0.0321236 0.00188178 0.5
0.00687636 0.0321236 -0.00188178 0.5
0.00687636 0.0321236 0.0025 0.5
0.00687636 0.0321236 -0.0025 0.5
0.0005 0.033 0.0025 0.5
0.0005 0.033 -0.0025 0.5
0.00687636 0.0325 8.88968e-19 0.5
0.00025 0.03325 0.0025 0.5
0.00025 0.03325 -0.0025 0.5
0.00025 0.0335 0 0.5
0.00687651 0.0328765 -0.00188256 0.5
0.00687651 0.0328765 0.00188256 0.5
0.00687651 0.0328765 0.0025 0.5
0.00687651 0.0328765 -0.0025 0.5
0.00680207 0.033 0.0025 0.5
0.00680207 0.033 -0.0025 0.5
0.00025 0.03375 0.0025 0.5
0.00025 0.03375 -0.0025 0.5
0.00687671 0.0331233 -0.00188355 0.5
0.00687671 0.0331233 0.00188355 0.5
0.00687671 0.0331233 0.0025 0.5
0.00687671 0.0331233 -0.0025 0.5
0.0005 0.034 0.0025 0.5
0.0005 0.034 -0.0025 0.5
0.00687686 0.0335 -2.33072e-18 0.5
0.00025 0.03425 0.0025 0.5
0.00025 0.03425 -0.0025 0.5
0.00025 0.0345 0 0.5
0.00687684 0.0338768 -0.00188419 0.5
0.00687684 0.0338768 0.00188419 0.5
0.00687684 0.0338768 0.0025 0.5
0.00687684 0.0338768 -0.0025 0.5
0.00680234 0.034 0.0025 0.5
0.00680234 0.034 -0.0025 0.5
0.00025 0.03475 0.0025 0.5
0.00025 0.03475 -0.0025 0.5
0.00687681 0.0341232 0.00188404 0.5
0.00687681 0.0341232 -0.00188404 0.5
0.00687681 0.0341232 0.0025 0.5
0.00687681 0.0341232 -0.0025 0.5
0.0005 0.035 0.0025 0.5
0.0005 0.035 -0.0025 0.5
0.00687678 0.0345 2.95152e-18 0.5
0.00025 0.03525 0.0025 0.5
0.00025 0.03525 -0.0025 0.5
0.00025 0.0355 0 0.5
0.00687685 0.0348769 -0.00188427 0.5
0.00687685 0.0348769 0.00188427 0.5
0.00687685 0.0348769 0.0025 0.5
0.00687685 0.0348769 -0.0025 0.5
0.00680244 0.035 -0.0025 0.5
0.00680244 0.035 0.0025 0.5
0.00025 0.03575 0.0025 0.5
0.00025 0.03575 -0.0025 0.5
0.00687694 0.0351231 -0.00188472 0.5
0.00687694 0.0351231 0.00188472 0.5
0.00687694 0.0351231 -0.0025 0.5
0.00687694 0.0351231 0.0025 0.5
0.0005 0.036 0.0025 0.5
0.0005 0.036 -0.0025 0.5
0.00687701 0.0355 -3.34683e-20 0.5
0.00025 0.03625 0.0025 0.5
0.00025 0.03625 -0.0025 0.5
0.00025 0.0365 0 0.5
0.00687773 0.0358777 -0.00188867 0.5
0.00687773 0.0358777 0.00188867 0.5
0.00687773 0.0358777 -0.0025 0.5
0.00687773 0.0358777 0.0025 0.5
0.00680411 0.036 -0.0025 0.5
0.00680411 0.036 0.0025 0.5
0.00687866 0.0361213 0.0018933 0.5
0.00687866 0.0361213 -0.0018933 0.5
0.00025 0.03675 0.0025 0.5
0.00025 0.03675 -0.0025 0.5
0.00687866 0.0361213 0.0025 0.5
0.00687866 0.0361213 -0.0025 0.5
0.0005 0.037 0.0025 0.5
0.0005 0.037 -0.0025 0.5
0.00687938 0.0365 -1.32734e-18 0.5
0.00025 0.03725 -0.0025 0.5
0.00025 0.03725 0.0025 0.5
0.00025 0.0375 -6.77626e-19 0.5
0.00688072 0.0368807 -0.00190362 0.5
0.00688072 0.0368807 0.00190362 0.5
0.00688072 0.0368807 0.0025 0.5
0.00688072 0.0368807 -0.0025 0.5
0.00680849 0.037 0.0025 0.5
0.00680849 0.037 -0.0025 0.5
0.00688239 0.0371176 0.00191197 0.5
0.00688239 0.0371176 -0.00191197 0.5
0.00688239 0.0371176 -0.0025 0.5
0.00688239 0.0371176 0.0025 0.5
0.00025 0.03775 0.0025 0.5
0.00025 0.03775 -0.0025 0.5
0.0005 0.038 0.0025 0.5
0.0005 0.038 -0.0025 0.5
0.00688374 0.0375 -1.03544e-18 0.5
0.00025 0.03825 0.0025 0.5
0.00025 0.03825 -0.0025 0.5
0.00025 0.0385 8.67362e-19 0.5
0.00688431 0.0378843 -0.00192155 0.5
0.00688431 0.0378843 0.00192155 0.5
0.00688431 0.0378843 0.0025 0.5
0.00688431 0.0378843 -0.0025 0.5
0.00681255 0.038 0.0025 0.5
0.00681255 0.038 -0.0025 0.5
0.006885 0.038115 0.00192499 0.5
0.006885 0.038115 -0.00192499 0.5
0.006885 0.038115 0.0025 0.5
0.006885 0.038115 -0.0025 0.5
0.00025 0.03875 0.0025 0.5
0.00025 0.03875 -0.0025 0.5
0.0005 0.039 0.0025 0.5
0.0005 0.039 -0.0025 0.5
0.00688557 0.0385 3.31153e-18 0.5
0.00025 0.03925 -0.0025 0.5
0.00025 0.03925 0.0025 0.5
0.00025 0.0395 0 0.5
0.00688597 0.038886 -0.00192986 0.5
0.00688597 0.038886 0.00192986 0.5
0.00688597 0.038886 -0.0025 0.5
0.00688597 0.038886 0.0025 0.5
0.00681461 0.039 -0.0025 0.5
0.00681461 0.039 0.0025 0.5
0.00688645 0.0391136 -0.00193223 0.5
0.00688645 0.0391136 0.00193223 0.5
0.00688645 0.0391136 -0.0025 0.5
0.00688645 0.0391136 0.0025 0.5
0.00025 0.03975 -0.0025 0.5
0.00025 0.03975 0.0025 0.5
0.0005 0.04 0.0025 0.5
0.0005 0.04 -0.0025 0.5
0.00688685 0.0395 -2.16949e-18 0.5
0.00025 0.04025 0.0025 0.5
0.00025 0.04025 -0.0025 0.5
0.00025 0.0405 6.77626e-19 0.5
0.00688699 0.039887 -0.00193494 0.5
0.00688699 0.039887 0.00193494 0.5
0.00688699 0.039887 0.0025 0.5
0.00688699 0.039887 -0.0025 0.5
0.00681575 0.04 0.0025 0.5
0.00681575 0.04 -0.0025 0.5
0.00688715 0.0401128 0.00193575 0.5
0.00688715 0.0401128 -0.00193575 0.5
0.00688715 0.0401128 0.0025 0.5
0.00688715 0.0401128 -0.0025 0.5
0.00025 0.04075 0.0025 0.5
0.00025 0.04075 -0.0025 0.5
0.0005 0.041 -0.0025 0.5
0.0005 0.041 0.0025 0.5
0.00688729 0.0405 -5.37045e-19 0.5
0.00025 0.04125 0.0025 0.5
0.00025 0.04125 -0.0025 0.5
0.00025 0.0415 -6.77626e-19 0.5
0.00688638 0.0408864 -0.00193191 0.5
0.00688638 0.0408864 0.00193191 0.5
0.00688638 0.0408864 0.0025 0.5
0.00688638 0.0408864 -0.0025 0.5
0.00681413 0.041 0.0025 0.5
0.00681413 0.041 -0.0025 0.5
0.00688531 0.0411147 0.00192654 0.5
0.00688531 0.0411147 -0.00192654 0.5
0.00688531 0.0411147 0.0025 0.5
0.00688531 0.0411147 -0.0025 0.5
0.00025 0.04175 0.0025 0.5
0.00025 0.04175 -0.0025 0.5
0.0068844 0.0415 5.54435e-19 0.5
0.0005 0.042 0.0025 0.5
0.0005 0.042 -0.0025 0.5
0.00025 0.04225 0.0025 0.5
0.00025 0.04225 -0.0025 0.5
0.00688178 0.0418818 -0.0019089 0.5
0.00688178 0.0418818 0.0019089 0.5
0.00025 0.0425 0 0.5
0.00688178 0.0418818 0.0025 0.5
0.00688178 0.0418818 -0.0025 0.5
0.00680664 0.042 -0.0025 0.5
0.00680664 0.042 0.0025 0.5
0.00687847 0.0421215 0.00189234 0.5
0.00687847 0.0421215 -0.00189234 0.5
0.00687847 0.0421215 0.0025 0.5
0.00687847 0.0421215 -0.0025 0.5
0.00025 0.04275 0.0025 0.5
0.00025 0.04275 -0.0025 0.5
0.00687584 0.0425 0 0.5
0.0005 0.043 0.0025 0.5
0.0005 0.043 -0.0025 0.5
0.00025 0.04325 0.0025 0.5
0.00025 0.04325 -0.0025 0.5
0.00686999 0.04287 -0.00184994 0.5
0.00686999 0.04287 0.00184994 0.5
0.00686999 0.04287 0.0025 0.5
0.00686999 0.04287 -0.0025 0.5
0.00025 0.0435 0 0.5
0.00678841 0.043 0.0025 0.5
0.00678841 0.043 -0.0025 0.5
0.00686136 0.0431386 0.0018068 0.5
0.00686136 0.0431386 -0.0018068 0.5
0.00686136 0.0431386 0.0025 0.5
0.00686136 0.0431386 -0.0025 0.5
0.00025 0.04375 0.0025 0.5
0.00025 0.04375 -0.0025 0.5
0.00685546 0.0435 9.69264e-20 0.5
0.0005 0.044 0.0025 0.5
0.0005 0.044 -0.0025 0.5
0.00025 0.04425 0.0025 0.5
0.00025 0.04425 -0.0025 0.5
0.00681282 0.0438128 -0.00156411 0.5
0.00681282 0.0438128 0.00156411 0.5
0.00681282 0.0438128 -0.0025 0.5
0.00681282 0.0438128 0.0025 0.5
0.00025 0.0445 -8.67362e-19 0.5
0.00667001 0.044 0.0025 0.5
0.00667001 0.044 -0.0025 0.5
0.00025 0.04475 0.0025 0.5
0.00025 0.04475 -0.0025 0.5
0.00664016 0.0443598 0.0025 0.5
0.00664016 0.0443598 -0.0025 0.5
0.00662252 0.0444911 1.15326e-19 0.5
0.0005 0.045 0.0025 0.5
0.0005 0.045 -0.0025 0.5
0.00661349 0.0446135 0.0025 0.5
0.00661349 0.0446135 -0.0025 0.5
0.00025 0.04525 0.0025 0.5
0.00025 0.04525 -0.0025 0.5
0.00025 0.0455 1.49078e-18 0.5
0.00656226 0.045 0.0025 0.5
0.00656226 0.045 -0.0025 0.5
0.00025 0.04575 0.0025 0.5
0.00025 0.04575 -0.0025 0.5
0.00660792 0.0453921 0.0025 0.5
0.00660792 0.0453921 -0.0025 0.5
0.0066156 0.0455078 1.74904e-19 0.5
0.0005 0.046 -0.0025 0.5
0.0005 0.046 0.0025 0.5
0.00663133 0.0456313 0.0025 0.5
0.00663133 0.0456313 -0.0025 0.5
0.00025 0.04625 0.0025 0.5
0.00025 0.04625 -0.0025 0.5
0.00025 0.0465 -8.67362e-19 0.5
0.00666174 0.046 0.0025 0.5
0.00666174 0.046 -0.0025 0.5
0.00680441 0.0461956 0.00152206 0.5
0.00680441 0.0461956 -0.00152206 0.5
0.00680441 0.0461956 -0.0025 0.5
0.00680441 0.0461956 0.0025 0.5
0.00025 0.04675 0.0025 0.5
0.00025 0.04675 -0.0025 0.5
0.00684489 0.0465 3.00842e-18 0.5
0.0005 0.047 0.0025 0.5
0.0005 0.047 -0.0025 0.5
0.00025 0.04725 0.0025 0.5
0.00025 0.04725 -0.0025 0.5
0.00685065 0.0468506 -0.00175323 0.5
0.00685065 0.0468506 0.00175323 0.5
0.00685065 0.0468506 -0.0025 0.5
0.00685065 0.0468506 0.0025 0.5
0.00025 0.0475 0 0.5
0.00677576 0.047 0.0025 0.5
0.00677576 0.047 -0.0025 0.5
0.00685999 0.04714 -0.00179996 0.5
0.00685999 0.04714 0.00179996 0.5
0.00685999 0.04714 -0.0025 0.5
0.00685999 0.04714 0.0025 0.5
0.00025 0.04775 0.0025 0.5
0.00025 0.04775 -0.0025 0.5
0.00686571 0.0475 -1.89198e-18 0.5
0.0005 0.048 0.0025 0.5
0.0005 0.048 -0.0025 0.5
0.00025 0.04825 0.0025 0.5
0.00025 0.04825 -0.0025 0.5
0.00686826 0.0478683 -0.00184131 0.5
0.00686826 0.0478683 0.00184131 0.5
0.00686826 0.0478683 0.0025 0.5
0.00686826 0.0478683 -0.0025 0.5
0.00025 0.0485 0 0.5
0.00679374 0.048 -0.0025 0.5
0.00679374 0.048 0.0025 0.5
0.00687184 0.0481282 -0.00185919 0.5
0.00687184 0.0481282 0.00185919 0.5
0.00687184 0.0481282 -0.0025 0.5
0.00687184 0.0481282 0.0025 0.5
0.00025 0.04875 0.0025 0.5
0.00025 0.04875 -0.0025 0.5
0.00687438 0.0485 2.02514e-18 0.5
0.0005 0.049 0.0025 0.5
0.0005 0.049 -0.0025 0.5
0.00025 0.04925 0.0025 0.5
0.00025 0.04925 -0.0025 0.5
0.00687534 0.0488753 -0.00187672 0.5
0.00687534 0.0488753 0.00187672 0.5
0.00687534 0.0488753 -0.0025 0.5
0.00687534 0.0488753 0.0025 0.5
0.00025 0.0495 0 0.5
0.00680126 0.049 -0.0025 0.5
0.00680126 0.049 0.0025 0.5
0.00687662 0.0491234 -0.0018831 0.5
0.00687662 0.0491234 0.0018831 0.5
0.00687662 0.0491234 -0.0025 0.5
0.00687662 0.0491234 0.0025 0.5
0.00025 0.04975 0.0025 0.5
0.00025 0.04975 -0.0025 0.5
0.00687759 0.0495 -2.89837e-18 0.5
0.0005 0.05 0.0025 0.5
0.0005 0.05 -0.0025 0.5
0.00025 0.05025 -0.0025 0.5
0.00025 0.05025 0.0025 0.5
0.00687773 0.0498777 0.00188864 0.5
0.00687773 0.0498777 -0.00188864 0.5
0.00687773 0.0498777 -0.0025 0.5
0.00687773 0.0498777 0.0025 0.5
0.00025 0.0505 1.49078e-18 0.5
0.00680362 0.05 0.0025 0.5
0.00680362 0.05 -0.0025 0.5
0.00687791 0.0501221 0.00188955 0.5
0.00687791 0.0501221 -0.00188955 0.5
0.00687791 0.0501221 0.0025 0.5
0.00687791 0.0501221 -0.0025 0.5
0.00025 0.05075 -0.0025 0.5
0.00025 0.05075 0.0025 0.5
0.00687805 0.0505 1.00961e-19 0.5
0.0005 0.051 -0.0025 0.5
0.0005 0.051 0.0025 0.5
0.00025 0.05125 0.0025 0.5
0.00025 0.05125 -0.0025 0.5
0.00687831 0.0508783 0.00189154 0.5
0.00687831 0.0508783 -0.00189154 0.5
0.00687831 0.0508783 0.0025 0.5
0.00687831 0.0508783 -0.0025 0.5
0.00025 0.0515 -1.49078e-18 0.5
0.00680447 0.051 0.0025 0.5
0.00680447 0.051 -0.0025 0.5
0.00687864 0.0511214 -0.0018932 0.5
0.00687864 0.0511214 0.0018932 0.5
0.00687864 0.0511214 -0.0025 0.5
0.00687864 0.0511214 0.0025 0.5
0.00025 0.05175 0.0025 0.5
0.00025 0.05175 -0.0025 0.5
0.0068789 0.0515 1.92481e-18 0.5
0.0005 0.052 0.0025 0.5
0.0005 0.052 -0.0025 0.5
0.00025 0.05225 0.0025 0.5
0.00025 0.05225 -0.0025 0.5
0.00687899 0.051879 -0.00189496 0.5
0.00687899 0.051879 0.00189496 0.5
0.00687899 0.051879 0.0025 0.5
0.00687899 0.051879 -0.0025 0.5
0.00025 0.0525 0 0.5
0.00680522 0.052 0.0025 0.5
0.00680522 0.052 -0.0025 0.5
0.00687911 0.0521209 0.00189556 0.5
0.00687911 0.0521209 -0.00189556 0.5
0.00687911 0.0521209 0.0025 0.5
0.00687911 0.0521209 -0.0025 0.5
0.00025 0.05275 0.0025 0.5
0.00025 0.05275 -0.0025 0.5
0.00687921 0.0525 -1.73906e-18 0.5
0.0005 0.053 0.0025 0.5
0.0005 0.053 -0.0025 0.5
0.00025 0.05325 0.0025 0.5
0.00025 0.05325 -0.0025 0.5
0.00687908 0.0528791 -0.00189538 0.5
0.00687908 0.0528791 0.00189538 0.5
0.00687908 0.0528791 -0.0025 0.5
0.00687908 0.0528791 0.0025 0.5
0.00680514 0.053 0.0025 0.5
0.00680514 0.053 -0.0025 0.5
0.00025 0.0535 0 0.5
0.00687891 0.0531211 0.00189456 0.5
0.00687891 0.0531211 -0.00189456 0.5
0.00687891 0.0531211 0.0025 0.5
0.00687891 0.0531211 -0.0025 0.5
0.00025 0.05375 0.0025 0.5
0.00025 0.05375 -0.0025 0.5
0.00687878 0.0535 -1.81061e-18 0.5
0.0005 0.054 0.0025 0.5
0.0005 0.054 -0.0025 0.5
0.00025 0.05425 0.0025 0.5
0.00025 0.05425 -0.0025 0.5
0.00687873 0.0538787 -0.00189364 0.5