# f_l  POINT_DATA 1485
#  x  y  z  f_l
0.0462518 0.00111 0.0025 0.5
0.0462518 0.00111 -0.0025 0.5
0.0463203 0.00166433 -7.86639e-20 0.5
0.0462461 0.00222 0.0025 0.5
0.0462461 0.00222 -0.0025 0.5
0.0463709 0.000722322 -3.63394e-21 0.5
0.0463234 0.00145867 0.0025 0.5
0.0463234 0.00145867 -0.0025 0.5
0.0463214 0.00186931 0.0025 0.5
0.0463214 0.00186931 -0.0025 0.5
0.0463681 0.000805984 0.0025 0.5
0.0463681 0.000805984 -0.0025 0.5
0.0463618 0.00277967 0 0.5
0.04629 0.00333 0.0025 0.5
0.04629 0.00333 -0.0025 0.5
0.0463551 0.002537 0.0025 0.5
0.0463551 0.002537 -0.0025 0.5
0.0463692 0.00302702 0.0025 0.5
0.0463692 0.00302702 -0.0025 0.5
0.046405 0.00359718 0.0012965 0.5
0.046405 0.00359718 -0.0012965 0.5
0.0464138 0.003885 3.82492e-20 0.5
0.046405 0.00359718 -0.0025 0.5
0.046405 0.00359718 0.0025 0.5
0.0463455 0.00444 0.0025 0.5
0.0463455 0.00444 -0.0025 0.5
0.0464257 0.00419344 -0.00138937 0.5
0.0464257 0.00419344 0.00138937 0.5
0.0464257 0.00419344 0.0025 0.5
0.0464257 0.00419344 -0.0025 0.5
0.0464597 0.00465257 0.00154249 0.5
0.0464597 0.00465257 -0.00154249 0.5
0.0464719 0.004995 -1.01427e-19 0.5
0.0466725 0.000810701 -0.0025 0.5
0.0466725 0.000810701 0.0025 0.5
0.0464597 0.00465257 0.0025 0.5
0.0464597 0.00465257 -0.0025 0.5
0.0464099 0.00555 0.0025 0.5
0.0464099 0.00555 -0.0025 0.5
0.0464869 0.00536463 -0.00166498 0.5
0.0464869 0.00536463 0.00166498 0.5
0.0464869 0.00536463 0.0025 0.5
0.0464869 0.00536463 -0.0025 0.5
0.0465137 0.0057086 0.0017856 0.5
0.0465137 0.0057086 -0.0017856 0.5
0.0465286 0.006105 1.18764e-19 0.5
0.0465137 0.0057086 0.0025 0.5
0.0465137 0.0057086 -0.0025 0.5
0.0469503 0.0002775 0.0025 0.5
0.0469503 0.0002775 -0.0025 0.5
0.0464768 0.00666 0.0025 0.5
0.0464768 0.00666 -0.0025 0.5
0.0465446 0.00653224 -0.00192449 0.5
0.0465446 0.00653224 0.00192449 0.5
0.0465446 0.00653224 0.0025 0.5
0.0465446 0.00653224 -0.0025 0.5
0.0465618 0.00677057 0.00200192 0.5
0.0465618 0.00677057 -0.00200192 0.5
0.0465618 0.00677057 0.0025 0.5
0.0465618 0.00677057 -0.0025 0.5
0.0465773 0.007215 -6.92055e-20 0.5
0.0472281 0.0002775 -1.94461e-21 0.5
0.0465912 0.00777 0.0025 0.5
0.0465912 0.00777 -0.0025 0.5
0.046623 0.00772051 -0.00227708 0.5
0.046623 0.00772051 0.00227708 0.5
0.046623 0.00772051 0.0025 0.5
0.046623 0.00772051 -0.0025 0.5
0.0466284 0.00781401 0.00230178 0.5
0.0466284 0.00781401 -0.00230178 0.5
0.0466284 0.00781401 0.0025 0.5
0.0466284 0.00781401 -0.0025 0.5
0.0466779 0.008325 -8.15494e-21 0.5
0.0466725 0.00821935 -0.0025 0.5
0.0466725 0.00821935 0.0025 0.5
0.0475059 0.0002775 0.0025 0.5
0.0475059 0.0002775 -0.0025 0.5
0.046736 0.00881654 -0.00221413 0.5
0.046736 0.00881654 0.00221413 0.5
0.046736 0.00881654 0.0025 0.5
0.046736 0.00881654 -0.0025 0.5
0.0467684 0.00897579 -0.00206851 0.5
0.0467684 0.00897579 0.00206851 0.5
0.0467684 0.00897579 0.0025 0.5
0.0467684 0.00897579 -0.0025 0.5
0.0467954 0.00888 0.0025 0.5
0.0467954 0.00888 -0.0025 0.5
0.0468316 0.009435 3.75997e-20 0.5
0.0477837 0.000555 -0.0025 0.5
0.0477837 0.000555 0.0025 0.5
0.0468786 0.00978409 -0.00157249 0.5
0.0468786 0.00978409 0.00157249 0.5
0.0468786 0.00978409 0.0025 0.5
0.0468786 0.00978409 -0.0025 0.5
0.0470073 0.00999 0.0025 0.5
0.0470073 0.00999 -0.0025 0.5
0.0480616 0.0002775 0.0025 0.5
0.0480616 0.0002775 -0.0025 0.5
0.0470127 0.0103299 0.0025 0.5
0.0470127 0.0103299 -0.0025 0.5
0.0470444 0.0105251 -3.05941e-20 0.5
0.0470726 0.0107004 0.0025 0.5
0.0470726 0.0107004 -0.0025 0.5
0.0483394 0.0002775 0 0.5
0.0472029 0.0111 0.0025 0.5
0.0472029 0.0111 -0.0025 0.5
0.0486172 0.0002775 0.0025 0.5
0.0486172 0.0002775 -0.0025 0.5
0.047346 0.0116189 1.1481e-22 0.5
0.0473398 0.0115434 0.0025 0.5
0.0473398 0.0115434 -0.0025 0.5
0.0473755 0.0118022 0.0025 0.5
0.0473755 0.0118022 -0.0025 0.5
0.048895 0.000555 -0.0025 0.5
0.048895 0.000555 0.0025 0.5
0.0473847 0.01221 0.0025 0.5
0.0473847 0.01221 -0.0025 0.5
0.0475343 0.0124591 -0.00137774 0.5
0.0475343 0.0124591 0.00137774 0.5
0.0475343 0.0124591 0.0025 0.5
0.0475343 0.0124591 -0.0025 0.5
0.0491728 0.0002775 0.0025 0.5
0.0491728 0.0002775 -0.0025 0.5
0.0475673 0.012765 5.14647e-19 0.5
0.0476029 0.0131394 0.0016864 0.5
0.0476029 0.0131394 -0.0016864 0.5
0.0475482 0.01332 -0.0025 0.5
0.0475482 0.01332 0.0025 0.5
0.0476029 0.0131394 0.0025 0.5
0.0476029 0.0131394 -0.0025 0.5
0.0494506 0.0002775 0 0.5
0.0476564 0.0134472 0.00192699 0.5
0.0476564 0.0134472 -0.00192699 0.5
0.0476564 0.0134472 0.0025 0.5
0.0476564 0.0134472 -0.0025 0.5
0.0476906 0.013875 -7.42945e-19 0.5
0.0497284 0.0002775 0.0025 0.5
0.0497284 0.0002775 -0.0025 0.5
0.0477801 0.01443 0.0025 0.5
0.0477801 0.01443 -0.0025 0.5
0.0477814 0.0144277 -0.00248954 0.5
0.0477814 0.0144277 0.00248954 0.5
0.0477814 0.0144277 -0.0025 0.5
0.0477814 0.0144277 0.0025 0.5
0.0477819 0.0144318 0.0024917 0.5
0.0477819 0.0144318 -0.0024917 0.5
0.0477819 0.0144318 0.0025 0.5
0.0477819 0.0144318 -0.0025 0.5
0.0477837 0.0144411 -0.0025 0.5
0.0477837 0.0144411 0.0025 0.5
0.0500063 0.000555 -0.0025 0.5
0.0500063 0.000555 0.0025 0.5
0.0478842 0.014985 4.37922e-20 0.5
0.0502841 0.0002775 0.0025 0.5
0.0502841 0.0002775 -0.0025 0.5
0.0479633 0.0153607 -0.00169231 0.5
0.0479633 0.0153607 0.00169231 0.5
0.0479633 0.0153607 0.0025 0.5
0.0479633 0.0153607 -0.0025 0.5
0.0505619 0.0002775 1.91847e-21 0.5
0.0481243 0.01554 0.0025 0.5
0.0481243 0.01554 -0.0025 0.5
0.0482318 0.0159876 0.0025 0.5
0.0482318 0.0159876 -0.0025 0.5
0.0482663 0.0161021 -6.00592e-20 0.5
0.0508397 0.0002775 0.0025 0.5
0.0508397 0.0002775 -0.0025 0.5
0.0482783 0.016156 0.0025 0.5
0.0482783 0.016156 -0.0025 0.5
0.0511175 0.000555 -0.0025 0.5
0.0511175 0.000555 0.0025 0.5
0.0484284 0.01665 0.0025 0.5
0.0484284 0.01665 -0.0025 0.5
0.0513953 0.0002775 0.0025 0.5
0.0513953 0.0002775 -0.0025 0.5
0.0486251 0.0170248 0 0.5
0.04861 0.0169347 0.0025 0.5
0.04861 0.0169347 -0.0025 0.5
0.0516731 0.0002775 0 0.5
0.0487039 0.0175691 -0.00164016 0.5
0.0487039 0.0175691 0.00164016 0.5
0.0487039 0.0175691 0.0025 0.5
0.0487039 0.0175691 -0.0025 0.5
0.0486636 0.01776 0.0025 0.5
0.0486636 0.01776 -0.0025 0.5
0.0487767 0.0178782 0.00196752 0.5
0.0487767 0.0178782 -0.00196752 0.5
0.0487767 0.0178782 0.0025 0.5
0.0487767 0.0178782 -0.0025 0.5
0.0519509 0.0002775 0.0025 0.5
0.0519509 0.0002775 -0.0025 0.5
0.0488227 0.018315 0 0.5
0.0522288 0.000555 -0.0025 0.5
0.0522288 0.000555 0.0025 0.5
0.048895 0.0186238 -0.0025 0.5
0.048895 0.0186238 0.0025 0.5
0.0489261 0.0188389 -0.00235989 0.5
0.0489261 0.0188389 0.00235989 0.5
0.0489261 0.0188389 0.0025 0.5
0.0489261 0.0188389 -0.0025 0.5
0.0489536 0.0189286 -0.00223615 0.5
0.0489536 0.0189286 0.00223615 0.5
0.0489655 0.01887 0.0025 0.5
0.0489655 0.01887 -0.0025 0.5
0.0489536 0.0189286 0.0025 0.5
0.0489536 0.0189286 -0.0025 0.5
0.0525066 0.0002775 0.0025 0.5
0.0525066 0.0002775 -0.0025 0.5
0.0490713 0.019425 5.13842e-21 0.5
0.0527844 0.0002775 0 0.5
0.0491446 0.0197307 -0.00137697 0.5
0.0491446 0.0197307 0.00137697 0.5
0.0491446 0.0197307 -0.0025 0.5
0.0491446 0.0197307 0.0025 0.5
0.0530622 0.0002775 0.0025 0.5
0.0530622 0.0002775 -0.0025 0.5
0.0493544 0.01998 -0.0025 0.5
0.0493544 0.01998 0.0025 0.5
0.05334 0.000555 -0.0025 0.5
0.05334 0.000555 0.0025 0.5
0.0495782 0.0204075 -0.0025 0.5
0.0495782 0.0204075 0.0025 0.5
0.0536178 0.0002775 -0.0025 0.5
0.0536178 0.0002775 0.0025 0.5
0.0496013 0.0205207 4.3858e-20 0.5
0.0496597 0.0207439 -0.0025 0.5
0.0496597 0.0207439 0.0025 0.5
0.0538956 0.0002775 0 0.5
0.0496866 0.02109 -0.0025 0.5
0.0496866 0.02109 0.0025 0.5
0.0498403 0.0212557 0.00175342 0.5
0.0498403 0.0212557 -0.00175342 0.5
0.0541734 0.0002775 0.0025 0.5
0.0541734 0.0002775 -0.0025 0.5
0.0498403 0.0212557 0.0025 0.5
0.0498403 0.0212557 -0.0025 0.5
0.0498987 0.021645 3.06487e-19 0.5
0.0544513 0.000555 -0.0025 0.5
0.0544513 0.000555 0.0025 0.5
0.0499667 0.0221605 -0.00232216 0.5
0.0499667 0.0221605 0.00232216 0.5
0.0499466 0.0222 0.0025 0.5
0.0499466 0.0222 -0.0025 0.5
0.0499667 0.0221605 0.0025 0.5
0.0499667 0.0221605 -0.0025 0.5
0.0499781 0.0222281 0.00237344 0.5
0.0499781 0.0222281 -0.00237344 0.5
0.0499781 0.0222281 -0.0025 0.5
0.0499781 0.0222281 0.0025 0.5
0.0547291 0.0002775 0.0025 0.5
0.0547291 0.0002775 -0.0025 0.5
0.0500063 0.0223716 -0.0025 0.5
0.0500063 0.0223716 0.0025 0.5
0.050042 0.022755 -7.21658e-20 0.5
0.0550069 0.0002775 -5.58287e-21 0.5
0.0501447 0.0231717 -0.00187711 0.5
0.0501447 0.0231717 0.00187711 0.5
0.0501447 0.0231717 -0.0025 0.5
0.0501447 0.0231717 0.0025 0.5
0.0552847 0.0002775 0.0025 0.5
0.0552847 0.0002775 -0.0025 0.5
0.0503231 0.02331 0.0025 0.5
0.0503231 0.02331 -0.0025 0.5
0.0555625 0.000555 -0.0025 0.5
0.0555625 0.000555 0.0025 0.5
0.0558403 0.0002775 0.0025 0.5
0.0558403 0.0002775 -0.0025 0.5
0.0505769 0.0238653 3.06426e-21 0.5
0.0505733 0.0238536 -0.0025 0.5
0.0505733 0.0238536 0.0025 0.5
0.0505849 0.023888 -0.0025 0.5
0.0505849 0.023888 0.0025 0.5
0.0561181 0.0002775 0 0.5
0.0507362 0.02442 0.0025 0.5
0.0507362 0.02442 -0.0025 0.5
0.0563959 0.0002775 0.0025 0.5
0.0563959 0.0002775 -0.0025 0.5
0.0509181 0.0246192 0.0016026 0.5
0.0509181 0.0246192 -0.0016026 0.5
0.0509181 0.0246192 0.0025 0.5
0.0509181 0.0246192 -0.0025 0.5
0.0566738 0.000555 -0.0025 0.5
0.0566738 0.000555 0.0025 0.5
0.0509841 0.024975 -1.217e-19 0.5
0.0569516 0.0002775 0.0025 0.5
0.0569516 0.0002775 -0.0025 0.5
0.0510346 0.0254471 -0.00212679 0.5
0.0510346 0.0254471 0.00212679 0.5
0.0510346 0.0254471 0.0025 0.5
0.0510346 0.0254471 -0.0025 0.5
0.050998 0.02553 0.0025 0.5
0.050998 0.02553 -0.0025 0.5
0.0510614 0.025586 0.00224753 0.5
0.0510614 0.025586 -0.00224753 0.5
0.0510614 0.025586 0.0025 0.5
0.0510614 0.025586 -0.0025 0.5
0.0572294 0.0002775 0 0.5
0.0511053 0.026085 -2.08096e-19 0.5
0.0511175 0.0259469 -0.0025 0.5
0.0511175 0.0259469 0.0025 0.5
0.0575072 0.0002775 0.0025 0.5
0.0575072 0.0002775 -0.0025 0.5
0.0512018 0.0265558 -0.0021209 0.5
0.0512018 0.0265558 0.0021209 0.5
0.0512018 0.0265558 0.0025 0.5
0.0512018 0.0265558 -0.0025 0.5
0.057785 0.000555 -0.0025 0.5
0.057785 0.000555 0.0025 0.5
0.0513183 0.02664 0.0025 0.5
0.0513183 0.02664 -0.0025 0.5
0.0513534 0.0268757 -0.00143842 0.5
0.0513534 0.0268757 0.00143842 0.5
0.0513534 0.0268757 0.0025 0.5
0.0513534 0.0268757 -0.0025 0.5
0.0580628 0.0002775 0.0025 0.5
0.0580628 0.0002775 -0.0025 0.5
0.0583406 0.0002775 0 0.5
0.0515242 0.0273718 -1.25722e-19 0.5
0.051504 0.027364 0.0025 0.5
0.051504 0.027364 -0.0025 0.5
0.0586184 0.0002775 0.0025 0.5
0.0586184 0.0002775 -0.0025 0.5
0.0517324 0.02775 0.0025 0.5
0.0517324 0.02775 -0.0025 0.5
0.0588963 0.000555 -0.0025 0.5
0.0588963 0.000555 0.0025 0.5
0.0519537 0.0280247 -0.00126251 0.5
0.0519537 0.0280247 0.00126251 0.5
0.0519537 0.0280247 0.0025 0.5
0.0519537 0.0280247 -0.0025 0.5
0.052021 0.028305 -1.61315e-18 0.5
0.0591741 0.0002775 0.0025 0.5
0.0591741 0.0002775 -0.0025 0.5
0.0594519 0.0002775 -7.45167e-21 0.5
0.0520794 0.0287108 -0.00182781 0.5
0.0520794 0.0287108 0.00182781 0.5
0.0520794 0.0287108 0.0025 0.5
0.0520794 0.0287108 -0.0025 0.5
0.0520425 0.02886 0.0025 0.5
0.0520425 0.02886 -0.0025 0.5
0.0521394 0.0289493 -0.00209781 0.5
0.0521394 0.0289493 0.00209781 0.5
0.0521394 0.0289493 -0.0025 0.5
0.0521394 0.0289493 0.0025 0.5
0.0597297 0.0002775 0.0025 0.5
0.0597297 0.0002775 -0.0025 0.5
0.0521914 0.029415 6.5831e-19 0.5
0.0600075 0.000555 -0.0025 0.5
0.0600075 0.000555 0.0025 0.5
0.0522288 0.0298269 -0.0025 0.5
0.0522288 0.0298269 0.0025 0.5
0.0522422 0.0299566 -0.00243951 0.5
0.0522422 0.0299566 0.00243951 0.5
0.0522422 0.0299566 0.0025 0.5
0.0522422 0.0299566 -0.0025 0.5
0.052246 0.0299872 -0.00242248 0.5
0.052246 0.0299872 0.00242248 0.5
0.052246 0.0299872 0.0025 0.5
0.052246 0.0299872 -0.0025 0.5
0.0522572 0.02997 -0.0025 0.5
0.0522572 0.02997 0.0025 0.5
0.0602853 0.0002775 0.0025 0.5
0.0602853 0.0002775 -0.0025 0.5
0.0522992 0.030525 9.17658e-19 0.5
0.0605631 0.0002775 -9.93434e-23 0.5
0.0523945 0.0309145 -0.0017543 0.5
0.0523945 0.0309145 0.0017543 0.5
0.0523945 0.0309145 0.0025 0.5
0.0523945 0.0309145 -0.0025 0.5
0.0608409 0.0002775 0.0025 0.5
0.0608409 0.0002775 -0.0025 0.5
0.0525948 0.03108 0.0025 0.5
0.0525948 0.03108 -0.0025 0.5
0.0611187 0.000555 -0.0025 0.5
0.0611187 0.000555 0.0025 0.5
0.0613966 0.0002775 -0.0025 0.5
0.0613966 0.0002775 0.0025 0.5
0.0528516 0.0315678 0.0025 0.5
0.0528516 0.0315678 -0.0025 0.5
0.0528713 0.0316352 -2.19266e-18 0.5
0.0616744 0.0002775 0 0.5
0.0529155 0.031766 0.0025 0.5
0.0529155 0.031766 -0.0025 0.5
0.0619522 0.0002775 -0.0025 0.5
0.0619522 0.0002775 0.0025 0.5
0.0530078 0.03219 -0.0025 0.5
0.0530078 0.03219 0.0025 0.5
0.0531757 0.0323541 -0.00176064 0.5
0.0531757 0.0323541 0.00176064 0.5
0.06223 0.000555 -0.0025 0.5
0.06223 0.000555 0.0025 0.5
0.0531757 0.0323541 -0.0025 0.5
0.0531757 0.0323541 0.0025 0.5
0.0532465 0.032745 1.64409e-18 0.5
0.0625078 0.0002775 0.0025 0.5
0.0625078 0.0002775 -0.0025 0.5
0.0627856 0.0002775 3.76374e-21 0.5
0.0532833 0.0332434 -0.00224501 0.5
0.0532833 0.0332434 0.00224501 0.5
0.0532833 0.0332434 0.0025 0.5
0.0532833 0.0332434 -0.0025 0.5
0.0532502 0.0333 0.0025 0.5
0.0532502 0.0333 -0.0025 0.5
0.053297 0.0333429 0.00230668 0.5
0.053297 0.0333429 -0.00230668 0.5
0.053297 0.0333429 0.0025 0.5
0.053297 0.0333429 -0.0025 0.5
0.0630634 0.0002775 -0.0025 0.5
0.0630634 0.0002775 0.0025 0.5
0.05333 0.033855 -2.03947e-20 0.5
0.05334 0.0340418 -0.0025 0.5
0.05334 0.0340418 0.0025 0.5
0.0633413 0.000555 -0.0025 0.5
0.0633413 0.000555 0.0025 0.5
0.0533614 0.0343886 -0.00240355 0.5
0.0533614 0.0343886 0.00240355 0.5
0.0533614 0.0343886 0.0025 0.5
0.0533614 0.0343886 -0.0025 0.5
0.0533664 0.0344364 -0.00238118 0.5
0.0533664 0.0344364 0.00238118 0.5
0.0533664 0.0344364 0.0025 0.5
0.0533664 0.0344364 -0.0025 0.5
0.053385 0.03441 0.0025 0.5
0.053385 0.03441 -0.0025 0.5
0.0636191 0.0002775 0.0025 0.5
0.0636191 0.0002775 -0.0025 0.5
0.0534003 0.034965 -2.7537e-20 0.5
0.0638969 0.0002775 -5.95927e-22 0.5
0.0534883 0.0353719 -0.00183281 0.5
0.0534883 0.0353719 0.00183281 0.5
0.0534883 0.0353719 0.0025 0.5
0.0534883 0.0353719 -0.0025 0.5
0.0641747 0.0002775 0.0025 0.5
0.0641747 0.0002775 -0.0025 0.5
0.0536653 0.03552 0.0025 0.5
0.0536653 0.03552 -0.0025 0.5
0.0644525 0.000555 -0.0025 0.5
0.0644525 0.000555 0.0025 0.5
0.0647303 0.0002775 0.0025 0.5
0.0647303 0.0002775 -0.0025 0.5
0.0538683 0.0360756 8.43652e-20 0.5
0.0538522 0.0360317 0.0025 0.5
0.0538522 0.0360317 -0.0025 0.5
0.0538741 0.0360965 0.0025 0.5
0.0538741 0.0360965 -0.0025 0.5
0.0650081 0.0002775 0 0.5
0.0540239 0.03663 0.0025 0.5
0.0540239 0.03663 -0.0025 0.5
0.0652859 0.0002775 0.0025 0.5
0.0652859 0.0002775 -0.0025 0.5
0.054206 0.036875 0.0013964 0.5
0.054206 0.036875 -0.0013964 0.5
0.054206 0.036875 0.0025 0.5
0.054206 0.036875 -0.0025 0.5
0.0655638 0.000555 -0.0025 0.5
0.0655638 0.000555 0.0025 0.5
0.0542594 0.037185 -4.05181e-21 0.5
0.0658416 0.0002775 0.0025 0.5
0.0658416 0.0002775 -0.0025 0.5
0.0543053 0.0375942 -0.00184341 0.5
0.0543053 0.0375942 0.00184341 0.5
0.0543053 0.0375942 0.0025 0.5
0.0543053 0.0375942 -0.0025 0.5
0.0661194 0.0002775 -1.81913e-21 0.5
0.0542587 0.03774 0.0025 0.5
0.0542587 0.03774 -0.0025 0.5
0.0543543 0.0378368 0.00206388 0.5
0.0543543 0.0378368 -0.00206388 0.5
0.0543543 0.0378368 0.0025 0.5
0.0543543 0.0378368 -0.0025 0.5
0.0663972 0.0002775 0.0025 0.5
0.0663972 0.0002775 -0.0025 0.5
0.0543964 0.038295 0 0.5
0.066675 0.000555 -0.0025 0.5
0.066675 0.000555 0.0025 0.5
0.0544214 0.0388202 -0.00236565 0.5
0.0544214 0.0388202 0.00236565 0.5
0.0543995 0.03885 0.0025 0.5
0.0543995 0.03885 -0.0025 0.5
0.0544214 0.0388202 0.0025 0.5
0.0544214 0.0388202 -0.0025 0.5
0.0544264 0.0388749 0.00238804 0.5
0.0544264 0.0388749 -0.00238804 0.5
0.0544264 0.0388749 0.0025 0.5
0.0544264 0.0388749 -0.0025 0.5
0.0669528 0.0002775 0.0025 0.5
0.0669528 0.0002775 -0.0025 0.5
0.0544494 0.039405 3.43493e-21 0.5
0.0672306 0.0002775 9.10876e-20 0.5
0.0675084 0.0002775 0.0025 0.5
0.0675084 0.0002775 -0.0025 0.5
0.0544494 0.03996 0.0025 0.5
0.0544494 0.03996 -0.0025 0.5
0.0544503 0.0399591 -0.00249592 0.5
0.0544503 0.0399591 0.00249592 0.5
0.0544503 0.0399591 0.0025 0.5
0.0544503 0.0399591 -0.0025 0.5
0.0544503 0.0399609 0.00249595 0.5
0.0544503 0.0399609 -0.00249595 0.5
0.0544503 0.0399609 0.0025 0.5
0.0544503 0.0399609 -0.0025 0.5
0.0544513 0.0399732 -0.0025 0.5
0.0544513 0.0399732 0.0025 0.5
0.0677863 0.000555 -0.0025 0.5
0.0677863 0.000555 0.0025 0.5
0.0544513 0.040515 4.36591e-20 0.5
0.0680641 0.0002775 0.0025 0.5
0.0680641 0.0002775 -0.0025 0.5
0.0545174 0.0410039 -0.00220225 0.5
0.0545174 0.0410039 0.00220225 0.5
0.0545174 0.0410039 0.0025 0.5
0.0545174 0.0410039 -0.0025 0.5
0.0683419 0.0002775 1.14121e-19 0.5
0.0546015 0.04107 -0.0025 0.5
0.0546015 0.04107 0.0025 0.5
0.0545776 0.0411962 -0.00193133 0.5
0.0545776 0.0411962 0.00193133 0.5
0.0545776 0.0411962 0.0025 0.5
0.0545776 0.0411962 -0.0025 0.5
0.0686197 0.0002775 0.0025 0.5
0.0686197 0.0002775 -0.0025 0.5
0.0546572 0.041625 -1.39882e-18 0.5
0.0546976 0.0419339 0.00139144 0.5
0.0546976 0.0419339 -0.00139144 0.5
0.0688975 0.000555 -0.0025 0.5
0.0688975 0.000555 0.0025 0.5
0.0546976 0.0419339 0.0025 0.5
0.0546976 0.0419339 -0.0025 0.5
0.0691753 0.0002775 0.0025 0.5
0.0691753 0.0002775 -0.0025 0.5
0.0548578 0.04218 0.0025 0.5
0.0548578 0.04218 -0.0025 0.5
0.0694531 0.0002775 9.36031e-20 0.5
0.0549097 0.042638 0.0025 0.5
0.0549097 0.042638 -0.0025 0.5
0.0549311 0.04276 1.22941e-18 0.5
0.0549355 0.0428063 0.0025 0.5
0.0549355 0.0428063 -0.0025 0.5
0.0697309 0.0002775 0.0025 0.5
0.0697309 0.0002775 -0.0025 0.5
0.0700088 0.000555 -0.0025 0.5
0.0700088 0.000555 0.0025 0.5
0.0550352 0.04329 0.0025 0.5
0.0550352 0.04329 -0.0025 0.5
0.0702866 0.0002775 0.0025 0.5
0.0702866 0.0002775 -0.0025 0.5
0.0551593 0.0436928 -0.0025 0.5
0.0551593 0.0436928 0.0025 0.5
0.0551748 0.043855 7.85218e-21 0.5
0.0705644 0.0002775 2.66209e-19 0.5
0.0551894 0.0440273 0.0025 0.5
0.0551894 0.0440273 -0.0025 0.5
0.0551551 0.0444 0.0025 0.5
0.0551551 0.0444 -0.0025 0.5
0.0708422 0.0002775 0.0025 0.5
0.0708422 0.0002775 -0.0025 0.5
0.05528 0.0446822 0.0025 0.5
0.05528 0.0446822 -0.0025 0.5
0.0552859 0.0447731 -1.22276e-20 0.5
0.07112 0.000555 -0.0025 0.5
0.07112 0.000555 0.0025 0.5
0.0713978 0.0002775 0.0025 0.5
0.0713978 0.0002775 -0.0025 0.5
0.0553106 0.0452584 -0.0013668 0.5
0.0553106 0.0452584 0.0013668 0.5
0.0553106 0.0452584 0.0025 0.5
0.0553106 0.0452584 -0.0025 0.5
0.055236 0.04551 0.0025 0.5
0.055236 0.04551 -0.0025 0.5
0.0716756 0.0002775 9.36031e-20 0.5
0.0553489 0.0457234 0.0015388 0.5
0.0553489 0.0457234 -0.0015388 0.5
0.0553489 0.0457234 0.0025 0.5
0.0553489 0.0457234 -0.0025 0.5
0.0719534 0.0002775 0.0025 0.5
0.0719534 0.0002775 -0.0025 0.5
0.0553624 0.046065 0 0.5
0.0722313 0.000555 -0.0025 0.5
0.0722313 0.000555 0.0025 0.5
0.0553715 0.0464292 -0.00164062 0.5
0.0553715 0.0464292 0.00164062 0.5
0.0553715 0.0464292 -0.0025 0.5
0.0553715 0.0464292 0.0025 0.5
0.0552887 0.04662 0.0025 0.5
0.0552887 0.04662 -0.0025 0.5
0.0553893 0.046793 0.00172077 0.5
0.0553893 0.046793 -0.00172077 0.5
0.0553893 0.046793 0.0025 0.5
0.0553893 0.046793 -0.0025 0.5
0.0725091 0.0002775 0.0025 0.5
0.0725091 0.0002775 -0.0025 0.5
0.0553984 0.047175 6.50665e-20 0.5
0.0727869 0.0002775 1.145e-19 0.5
0.0554043 0.047572 -0.00178826 0.5
0.0554043 0.047572 0.00178826 0.5
0.0554043 0.047572 -0.0025 0.5
0.0554043 0.047572 0.0025 0.5
0.0730647 0.0002775 0.0025 0.5
0.0730647 0.0002775 -0.0025 0.5
0.0553219 0.04773 0.0025 0.5
0.0553219 0.04773 -0.0025 0.5
0.0554133 0.0478791 -0.00182852 0.5
0.0554133 0.0478791 0.00182852 0.5
0.0554133 0.0478791 0.0025 0.5
0.0554133 0.0478791 -0.0025 0.5
0.0733425 0.000555 -0.0025 0.5
0.0733425 0.000555 0.0025 0.5
0.0554191 0.048285 -2.41167e-18 0.5
0.0736203 0.0002775 0.0025 0.5
0.0736203 0.0002775 -0.0025 0.5
0.0554228 0.0487005 -0.00187148 0.5
0.0554228 0.0487005 0.00187148 0.5
0.0554228 0.0487005 0.0025 0.5
0.0554228 0.0487005 -0.0025 0.5
0.0553424 0.04884 0.0025 0.5
0.0553424 0.04884 -0.0025 0.5
0.0738981 0.0002775 1.12679e-19 0.5
0.0554277 0.0489747 0.00189337 0.5
0.0554277 0.0489747 -0.00189337 0.5
0.0554277 0.0489747 0.0025 0.5
0.0554277 0.0489747 -0.0025 0.5
0.0741759 0.0002775 0.0025 0.5
0.0741759 0.0002775 -0.0025 0.5
0.0554314 0.049395 2.50047e-18 0.5
0.0744538 0.000555 -0.0025 0.5
0.0744538 0.000555 0.0025 0.5
0.055433 0.0498206 -0.00191712 0.5
0.055433 0.0498206 0.00191712 0.5
0.055433 0.0498206 0.0025 0.5
0.055433 0.0498206 -0.0025 0.5
0.0553537 0.04995 0.0025 0.5
0.0553537 0.04995 -0.0025 0.5
0.0554349 0.0500775 0.00192568 0.5
0.0554349 0.0500775 -0.00192568 0.5
0.0554349 0.0500775 0.0025 0.5
0.0554349 0.0500775 -0.0025 0.5
0.0747316 0.0002775 0.0025 0.5
0.0747316 0.0002775 -0.0025 0.5
0.0554364 0.050505 1.55631e-18 0.5
0.0750094 0.0002775 1.14375e-19 0.5
0.0554368 0.0509345 -0.00193454 0.5
0.0554368 0.0509345 0.00193454 0.5
0.0554368 0.0509345 -0.0025 0.5
0.0554368 0.0509345 0.0025 0.5
0.0752872 0.0002775 0.0025 0.5
0.0752872 0.0002775 -0.0025 0.5
0.0553578 0.05106 -0.0025 0.5
0.0553578 0.05106 0.0025 0.5
0.0554373 0.0511851 0.0019366 0.5
0.0554373 0.0511851 -0.0019366 0.5
0.0554373 0.0511851 0.0025 0.5
0.0554373 0.0511851 -0.0025 0.5
0.075565 0.000555 -0.0025 0.5
0.075565 0.000555 0.0025 0.5
0.0554377 0.051615 -3.3001e-18 0.5
0.0758428 0.0002775 0.0025 0.5
0.0758428 0.0002775 -0.0025 0.5
0.0554366 0.0520442 -0.00193348 0.5
0.0554366 0.0520442 0.00193348 0.5
0.0554366 0.0520442 0.0025 0.5
0.0554366 0.0520442 -0.0025 0.5
0.0553564 0.05217 0.0025 0.5
0.0553564 0.05217 -0.0025 0.5
0.0761206 0.0002775 1.14623e-19 0.5
0.0554353 0.052297 -0.00192771 0.5
0.0554353 0.052297 0.00192771 0.5
0.0554353 0.052297 -0.0025 0.5
0.0554353 0.052297 0.0025 0.5
0.0763984 0.0002775 0.0025 0.5
0.0763984 0.0002775 -0.0025 0.5
0.0554342 0.052725 1.83458e-18 0.5
0.0766763 0.000555 -0.0025 0.5
0.0766763 0.000555 0.0025 0.5
0.055431 0.0531486 -0.00190831 0.5
0.055431 0.0531486 0.00190831 0.5
0.055431 0.0531486 0.0025 0.5
0.055431 0.0531486 -0.0025 0.5
0.0553472 0.05328 -0.0025 0.5
0.0553472 0.05328 0.0025 0.5
0.0769541 0.0002775 0.0025 0.5
0.0769541 0.0002775 -0.0025 0.5
0.0554269 0.0534154 0.00188989 0.5
0.0554269 0.0534154 -0.00188989 0.5
0.0554269 0.0534154 0.0025 0.5
0.0554269 0.0534154 -0.0025 0.5
0.0772319 0.0002775 1.08196e-19 0.5
0.0554237 0.053835 4.3694e-18 0.5
0.0775097 0.0002775 0.0025 0.5
0.0775097 0.0002775 -0.0025 0.5
0.0554188 0.0542465 -0.00185345 0.5
0.0554188 0.0542465 0.00185345 0.5
0.0554188 0.0542465 0.0025 0.5
0.0554188 0.0542465 -0.0025 0.5
0.0553299 0.05439 -0.0025 0.5
0.0553299 0.05439 0.0025 0.5
0.0554118 0.0545405 0.00182185 0.5
0.0554118 0.0545405 -0.00182185 0.5
0.0554118 0.0545405 -0.0025 0.5
0.0554118 0.0545405 0.0025 0.5
0.0777875 0.000555 -0.0025 0.5
0.0777875 0.000555 0.0025 0.5
0.0554069 0.054945 -4.2349e-18 0.5
0.0780653 0.0002775 0.0025 0.5
0.0780653 0.0002775 -0.0025 0.5
0.0553998 0.0553375 0.00176787 0.5
0.0553998 0.0553375 -0.00176787 0.5
0.0553998 0.0553375 -0.0025 0.5
0.0553998 0.0553375 0.0025 0.5
0.0783431 0.0002775 8.26565e-20 0.5
0.0553037 0.0555 -0.0025 0.5
0.0553037 0.0555 0.0025 0.5
0.0553873 0.055675 0.00171186 0.5
0.0553873 0.055675 -0.00171186 0.5
0.0553873 0.055675 0.0025 0.5
0.0553873 0.055675 -0.0025 0.5
0.0786209 0.0002775 0.0025 0.5
0.0786209 0.0002775 -0.0025 0.5
0.0553802 0.056055 8.95876e-20 0.5
0.0788988 0.000555 -0.0025 0.5
0.0788988 0.000555 0.0025 0.5
0.0553708 0.0564185 -0.00163729 0.5
0.0553708 0.0564185 0.00163729 0.5
0.0553708 0.0564185 0.0025 0.5
0.0553708 0.0564185 -0.0025 0.5
0.0552663 0.05661 0.0025 0.5
0.0552663 0.05661 -0.0025 0.5
0.0791766 0.0002775 0.0025 0.5
0.0791766 0.0002775 -0.0025 0.5
0.0553492 0.0568231 0.0015403 0.5
0.0553492 0.0568231 -0.0015403 0.5
0.0553492 0.0568231 0.0025 0.5
0.0553492 0.0568231 -0.0025 0.5
0.0794544 0.0002775 9.54222e-20 0.5
0.0553398 0.057165 -1.46387e-19 0.5
0.0797322 0.0002775 0.0025 0.5
0.0797322 0.0002775 -0.0025 0.5
0.0553287 0.0574865 -0.00144809 0.5
0.0553287 0.0574865 0.00144809 0.5
0.0553287 0.0574865 0.0025 0.5
0.0553287 0.0574865 -0.0025 0.5
0.0552171 0.05772 0.0025 0.5
0.0552171 0.05772 -0.0025 0.5
0.08001 0.000555 -0.0025 0.5
0.08001 0.000555 0.0025 0.5
0.0552926 0.0579896 0.00128563 0.5
0.0552926 0.0579896 -0.00128563 0.5
0.0552926 0.0579896 0.0025 0.5
0.0552926 0.0579896 -0.0025 0.5
0.0802878 0.0002775 0.0025 0.5
0.0802878 0.0002775 -0.0025 0.5
0.0552743 0.0584506 -3.81882e-20 0.5
0.0552705 0.0585384 0.0025 0.5
0.0552705 0.0585384 -0.0025 0.5
0.0805656 0.0002775 1.15842e-19 0.5
0.0551576 0.05883 0.0025 0.5
0.0551576 0.05883 -0.0025 0.5
0.0808434 0.0002775 0.0025 0.5
0.0808434 0.0002775 -0.0025 0.5
0.0552122 0.0591799 0.0025 0.5
0.0552122 0.0591799 -0.0025 0.5
0.0552025 0.0593786 -4.13617e-22 0.5
0.0811213 0.000555 -0.0025 0.5
0.0811213 0.000555 0.0025 0.5
0.0551928 0.0595707 0.0025 0.5
0.0551928 0.0595707 -0.0025 0.5
0.0813991 0.0002775 0.0025 0.5
0.0813991 0.0002775 -0.0025 0.5
0.0550908 0.05994 0.0025 0.5
0.0550908 0.05994 -0.0025 0.5
0.0816769 0.0002775 9.5745e-20 0.5
0.0551026 0.0603994 -0.0025 0.5
0.0551026 0.0603994 0.0025 0.5
0.0550973 0.0604915 -1.09875e-19 0.5
0.0550921 0.0605802 -0.0025 0.5
0.0550921 0.0605802 0.0025 0.5
0.0819547 0.0002775 0.0025 0.5
0.0819547 0.0002775 -0.0025 0.5
0.0550209 0.06105 0.0025 0.5
0.0550209 0.06105 -0.0025 0.5
0.0822325 0.000555 -0.0025 0.5
0.0822325 0.000555 0.0025 0.5
0.0549692 0.0615789 -8.69757e-20 0.5
0.0825103 0.0002775 0.0025 0.5
0.0825103 0.0002775 -0.0025 0.5
0.0549685 0.0615667 -0.0025 0.5
0.0549685 0.0615667 0.0025 0.5
0.0549637 0.0616481 -0.0025 0.5
0.0549637 0.0616481 0.0025 0.5
0.0827881 0.0002775 8.32524e-20 0.5
0.0549528 0.06216 0.0025 0.5
0.0549528 0.06216 -0.0025 0.5
0.0830659 0.0002775 0.0025 0.5
0.0830659 0.0002775 -0.0025 0.5
0.0548636 0.0625719 0.0025 0.5
0.0548636 0.0625719 -0.0025 0.5
0.0548564 0.0627197 5.6101e-22 0.5
0.0833437 0.000555 -0.0025 0.5
0.0833437 0.000555 0.0025 0.5
0.0548494 0.0628723 0.0025 0.5
0.0548494 0.0628723 -0.0025 0.5
0.0836216 0.0002775 0.0025 0.5
0.0836216 0.0002775 -0.0025 0.5
0.0548916 0.06327 0.0025 0.5
0.0548916 0.06327 -0.0025 0.5
0.0838994 0.0002775 3.228e-22 0.5
0.0547878 0.0636061 0.0025 0.5
0.0547878 0.0636061 -0.0025 0.5
0.0547793 0.0638305 2.4419e-21 0.5
0.0841772 0.0002775 0.0025 0.5
0.0841772 0.0002775 -0.0025 0.5
0.0547713 0.0640603 -0.0025 0.5
0.0547713 0.0640603 0.0025 0.5
0.084455 0.000555 -0.0025 0.5
0.084455 0.000555 0.0025 0.5
0.0548407 0.06438 0.0025 0.5
0.0548407 0.06438 -0.0025 0.5
0.0547332 0.0646616 0.0025 0.5
0.0547332 0.0646616 -0.0025 0.5
0.0847328 0.0002775 0.0025 0.5
0.0847328 0.0002775 -0.0025 0.5
0.0547327 0.0649327 -1.05087e-21 0.5
0.0850106 0.0002775 0 0.5
0.05474 0.0652016 0.0025 0.5
0.05474 0.0652016 -0.0025 0.5
0.0852884 0.0002775 0.0025 0.5
0.0852884 0.0002775 -0.0025 0.5
0.0548602 0.06549 0.0025 0.5
0.0548602 0.06549 -0.0025 0.5
0.0855663 0.000555 -0.0025 0.5
0.0855663 0.000555 0.0025 0.5
0.0548191 0.0658575 0.0025 0.5
0.0548191 0.0658575 -0.0025 0.5
0.0858441 0.0002775 0.0025 0.5
0.0858441 0.0002775 -0.0025 0.5
0.0549317 0.0660722 -3.27279e-22 0.5
0.054919 0.0661327 0.0025 0.5
0.054919 0.0661327 -0.0025 0.5
0.0550947 0.0661327 0.0025 0.5
0.0550947 0.0661327 -0.0025 0.5
0.0861219 0.0002775 0 0.5
0.0555625 0.0659198 -0.0025 0.5
0.0555625 0.0659198 0.0025 0.5
0.0863997 0.0002775 0.0025 0.5
0.0863997 0.0002775 -0.0025 0.5
0.0866775 0.000555 -0.0025 0.5
0.0866775 0.000555 0.0025 0.5
0.0558403 0.0663225 0.0025 0.5
0.0558403 0.0663225 -0.0025 0.5
0.0561181 0.0663225 0 0.5
0.0869553 0.0002775 0.0025 0.5
0.0869553 0.0002775 -0.0025 0.5
0.0566738 0.066045 -0.0025 0.5
0.0566738 0.066045 0.0025 0.5
0.0563959 0.0663225 0.0025 0.5
0.0563959 0.0663225 -0.0025 0.5
0.0872331 0.0002775 0 0.5
0.0569516 0.0663225 0.0025 0.5
0.0569516 0.0663225 -0.0025 0.5
0.0875109 0.0002775 0.0025 0.5
0.0875109 0.0002775 -0.0025 0.5
0.0572294 0.0663225 0 0.5
0.057785 0.066045 -0.0025 0.5
0.057785 0.066045 0.0025 0.5
0.0575072 0.0663225 0.0025 0.5
0.0575072 0.0663225 -0.0025 0.5
0.0877888 0.000555 -0.0025 0.5
0.0877888 0.000555 0.0025 0.5
0.0880666 0.0002775 -0.00125 0.5
0.0880666 0.0002775 0.00125 0.5
0.0880666 0.0002775 0.0025 0.5
0.0880666 0.0002775 -0.0025 0.5
0.0580628 0.0663225 -0.0025 0.5
0.0580628 0.0663225 0.0025 0.5
0.0583406 0.0663225 0 0.5
0.0883444 0.0002775 0 0.5
0.0883444 0.00111 0.0025 0.5
0.0883444 0.00111 -0.0025 0.5
0.0883444 0.00222 0.0025 0.5
0.0883444 0.00222 -0.0025 0.5
0.0883444 0.00333 0.0025 0.5
0.0883444 0.00333 -0.0025 0.5
0.0883444 0.00444 0.0025 0.5
0.0883444 0.00444 -0.0025 0.5
0.0588963 0.066045 -0.0025 0.5
0.0588963 0.066045 0.0025 0.5
0.0586184 0.0663225 -0.0025 0.5
0.0586184 0.0663225 0.0025 0.5
0.0883444 0.00555 0.0025 0.5
0.0883444 0.00555 -0.0025 0.5
0.0886222 0.000555 0 0.5
0.0883444 0.00666 0.0025 0.5
0.0883444 0.00666 -0.0025 0.5
0.0886222 0.0002775 -0.00125 0.5
0.0886222 0.0002775 0.00125 0.5
0.0886222 0.0008325 0.00125 0.5
0.0886222 0.0008325 -0.00125 0.5
0.0886222 0.001665 0 0.5
0.0886222 0.0002775 0.0025 0.5
0.0886222 0.0002775 -0.0025 0.5
0.0886222 0.0008325 0.0025 0.5
0.0886222 0.0008325 -0.0025 0.5
0.0886222 0.002775 0 0.5
0.0886222 0.0013875 0.0025 0.5
0.0886222 0.0013875 -0.0025 0.5
0.0886222 0.0019425 0.0025 0.5
0.0886222 0.0019425 -0.0025 0.5
0.0886222 0.0024975 0.0025 0.5
0.0886222 0.0024975 -0.0025 0.5
0.0886222 0.003885 0 0.5
0.0886222 0.0030525 0.0025 0.5
0.0886222 0.0030525 -0.0025 0.5
0.0883444 0.00777 0.0025 0.5
0.0883444 0.00777 -0.0025 0.5
0.0886222 0.0036075 0.0025 0.5
0.0886222 0.0036075 -0.0025 0.5
0.0886222 0.0041625 0.0025 0.5
0.0886222 0.0041625 -0.0025 0.5
0.0886222 0.004995 -1.81603e-19 0.5
0.0886222 0.0047175 0.0025 0.5
0.0886222 0.0047175 -0.0025 0.5
0.0886222 0.0052725 0.0025 0.5
0.0886222 0.0052725 -0.0025 0.5
0.0883444 0.00888 0.0025 0.5
0.0883444 0.00888 -0.0025 0.5
0.0886222 0.006105 -4.31797e-21 0.5
0.0886222 0.0058275 0.0025 0.5
0.0886222 0.0058275 -0.0025 0.5
0.0886222 0.0063825 0.0025 0.5
0.0886222 0.0063825 -0.0025 0.5
0.0886222 0.007215 3.76366e-21 0.5
0.0591741 0.0663225 0.0025 0.5
0.0591741 0.0663225 -0.0025 0.5
0.0886222 0.0069375 -0.0025 0.5
0.0886222 0.0069375 0.0025 0.5
0.0883444 0.00999 0.0025 0.5
0.0883444 0.00999 -0.0025 0.5
0.0886222 0.0074925 -0.0025 0.5
0.0886222 0.0074925 0.0025 0.5
0.0886222 0.008325 1.10296e-21 0.5