# f_l  POINT_DATA 1193
#  x  y  z  f_l
0.068457 0.00222 0.0025 0.5
0.068457 0.00222 -0.0025 0.5
0.068484 0.00111 0.0025 0.5
0.068484 0.00111 -0.0025 0.5
0.0685632 0.0016622 4.86219e-21 0.5
0.0684728 0.00333 0.0025 0.5
0.0684728 0.00333 -0.0025 0.5
0.0685695 0.00143763 0.0025 0.5
0.0685695 0.00143763 -0.0025 0.5
0.0685757 0.00277641 3.63637e-20 0.5
0.0685611 0.00188397 0.0025 0.5
0.0685611 0.00188397 -0.0025 0.5
0.0686346 0.000555 1.53658e-19 0.5
0.0686227 0.000835514 -0.00126358 0.5
0.0686227 0.000835514 0.00126358 0.5
0.0685736 0.00254354 0.0025 0.5
0.0685736 0.00254354 -0.0025 0.5
0.0686227 0.000835514 0.0025 0.5
0.0686227 0.000835514 -0.0025 0.5
0.0684894 0.00444 0.0025 0.5
0.0684894 0.00444 -0.0025 0.5
0.0685778 0.00301068 0.0025 0.5
0.0685778 0.00301068 -0.0025 0.5
0.068591 0.00388658 4.2023e-19 0.5
0.0685887 0.00363848 0.0025 0.5
0.0685887 0.00363848 -0.0025 0.5
0.0685934 0.00413625 0.0025 0.5
0.0685934 0.00413625 -0.0025 0.5
0.0685096 0.00555 0.0025 0.5
0.0685096 0.00555 -0.0025 0.5
0.0686087 0.00499704 6.25213e-20 0.5
0.0686057 0.00473144 0.0025 0.5
0.0686057 0.00473144 -0.0025 0.5
0.0686118 0.00526466 0.0025 0.5
0.0686118 0.00526466 -0.0025 0.5
0.0686258 0.00582143 0.00127735 0.5
0.0686258 0.00582143 -0.00127735 0.5
0.0686293 0.006105 2.28198e-20 0.5
0.0685337 0.00666 -0.0025 0.5
0.0685337 0.00666 0.0025 0.5
0.0686258 0.00582143 0.0025 0.5
0.0686258 0.00582143 -0.0025 0.5
0.0686336 0.00639638 -0.00131254 0.5
0.0686336 0.00639638 0.00131254 0.5
0.0688975 0.000822284 -0.0025 0.5
0.0688975 0.000822284 0.0025 0.5
0.0686336 0.00639638 0.0025 0.5
0.0686336 0.00639638 -0.0025 0.5
0.0686486 0.00690867 0.00137988 0.5
0.0686486 0.00690867 -0.00137988 0.5
0.068653 0.007215 -3.00093e-21 0.5
0.0686486 0.00690867 0.0025 0.5
0.0686486 0.00690867 -0.0025 0.5
0.0685616 0.00777 0.0025 0.5
0.0685616 0.00777 -0.0025 0.5
0.0686582 0.00753101 -0.00142346 0.5
0.0686582 0.00753101 0.00142346 0.5
0.0686582 0.00753101 0.0025 0.5
0.0686582 0.00753101 -0.0025 0.5
0.0686734 0.00799381 0.00149185 0.5
0.0686734 0.00799381 -0.00149185 0.5
0.0686788 0.008325 1.80308e-19 0.5
0.0686734 0.00799381 0.0025 0.5
0.0686734 0.00799381 -0.0025 0.5
0.0685922 0.00888 0.0025 0.5
0.0685922 0.00888 -0.0025 0.5
0.0691753 0.0002775 0.0025 0.5
0.0691753 0.0002775 -0.0025 0.5
0.0686849 0.00866761 0.00154329 0.5
0.0686849 0.00866761 -0.00154329 0.5
0.0686849 0.00866761 0.0025 0.5
0.0686849 0.00866761 -0.0025 0.5
0.0686992 0.00907809 0.0016077 0.5
0.0686992 0.00907809 -0.0016077 0.5
0.0686992 0.00907809 0.0025 0.5
0.0686992 0.00907809 -0.0025 0.5
0.0687053 0.009435 -6.02454e-20 0.5
0.0686235 0.00999 0.0025 0.5
0.0686235 0.00999 -0.0025 0.5
0.0687117 0.00980442 -0.00166405 0.5
0.0687117 0.00980442 0.00166405 0.5
0.0687117 0.00980442 0.0025 0.5
0.0687117 0.00980442 -0.0025 0.5
0.0694531 0.0002775 9.36031e-20 0.5
0.0687239 0.0101634 0.00171912 0.5
0.0687239 0.0101634 -0.00171912 0.5
0.0687239 0.0101634 0.0025 0.5
0.0687239 0.0101634 -0.0025 0.5
0.0687303 0.010545 2.35624e-20 0.5
0.0686721 0.0111 0.0025 0.5
0.0686721 0.0111 -0.0025 0.5
0.0687483 0.0109509 -0.00182849 0.5
0.0687483 0.0109509 0.00182849 0.5
0.0687483 0.0109509 0.0025 0.5
0.0687483 0.0109509 -0.0025 0.5
0.0687569 0.0112404 -0.00186737 0.5
0.0687569 0.0112404 0.00186737 0.5
0.0687569 0.0112404 -0.0025 0.5
0.0687569 0.0112404 0.0025 0.5
0.0687757 0.011655 -3.22211e-20 0.5
0.0697309 0.0002775 0.0025 0.5
0.0697309 0.0002775 -0.0025 0.5
0.0687425 0.01221 0.0025 0.5
0.0687425 0.01221 -0.0025 0.5
0.0687964 0.012109 -0.00204508 0.5
0.0687964 0.012109 0.00204508 0.5
0.0687964 0.012109 0.0025 0.5
0.0687964 0.012109 -0.0025 0.5
0.0688016 0.0123058 0.00206848 0.5
0.0688016 0.0123058 -0.00206848 0.5
0.0688016 0.0123058 0.0025 0.5
0.0688016 0.0123058 -0.0025 0.5
0.0688233 0.012765 2.75926e-19 0.5
0.0700088 0.000555 -0.0025 0.5
0.0700088 0.000555 0.0025 0.5
0.0688194 0.01332 -0.0025 0.5
0.0688194 0.01332 0.0025 0.5
0.0688471 0.0132697 0.0022733 0.5
0.0688471 0.0132697 -0.0022733 0.5
0.0688471 0.0132697 0.0025 0.5
0.0688471 0.0132697 -0.0025 0.5
0.0688498 0.0133677 0.00228531 0.5
0.0688498 0.0133677 -0.00228531 0.5
0.0688498 0.0133677 0.0025 0.5
0.0688498 0.0133677 -0.0025 0.5
0.0688747 0.013875 -4.47688e-19 0.5
0.0702866 0.0002775 0.0025 0.5
0.0702866 0.0002775 -0.0025 0.5
0.0688975 0.0143195 -0.0025 0.5
0.0688975 0.0143195 0.0025 0.5
0.0689028 0.0144247 -0.0024763 0.5
0.0689028 0.0144247 0.0024763 0.5
0.0689028 0.0144247 0.0025 0.5
0.0689028 0.0144247 -0.0025 0.5
0.0689036 0.0144361 -0.00247246 0.5
0.0689036 0.0144361 0.00247246 0.5
0.0689036 0.0144361 0.0025 0.5
0.0689036 0.0144361 -0.0025 0.5
0.0689066 0.01443 0.0025 0.5
0.0689066 0.01443 -0.0025 0.5
0.0689329 0.014985 8.81075e-19 0.5
0.0705644 0.0002775 2.66209e-19 0.5
0.0689605 0.0154771 -0.00221656 0.5
0.0689605 0.0154771 0.00221656 0.5
0.0689605 0.0154771 0.0025 0.5
0.0689605 0.0154771 -0.0025 0.5
0.0689719 0.0156144 -0.00216503 0.5
0.0689719 0.0156144 0.00216503 0.5
0.0689719 0.0156144 0.0025 0.5
0.0689719 0.0156144 -0.0025 0.5
0.0689992 0.01554 0.0025 0.5
0.0689992 0.01554 -0.0025 0.5
0.0690003 0.016095 2.13598e-19 0.5
0.0708422 0.0002775 0.0025 0.5
0.0708422 0.0002775 -0.0025 0.5
0.0690264 0.0165213 -0.00192019 0.5
0.0690264 0.0165213 0.00192019 0.5
0.0690264 0.0165213 -0.0025 0.5
0.0690264 0.0165213 0.0025 0.5
0.0690528 0.0168051 -0.00180133 0.5
0.0690528 0.0168051 0.00180133 0.5
0.0690528 0.0168051 0.0025 0.5
0.0690528 0.0168051 -0.0025 0.5
0.0690915 0.01665 0.0025 0.5
0.0690915 0.01665 -0.0025 0.5
0.07112 0.000555 -0.0025 0.5
0.07112 0.000555 0.0025 0.5
0.0690787 0.017205 1.39404e-19 0.5
0.0691022 0.0175555 -0.00157898 0.5
0.0691022 0.0175555 0.00157898 0.5
0.0691022 0.0175555 0.0025 0.5
0.0691022 0.0175555 -0.0025 0.5
0.0713978 0.0002775 0.0025 0.5
0.0713978 0.0002775 -0.0025 0.5
0.0691493 0.0180115 0.00136694 0.5
0.0691493 0.0180115 -0.00136694 0.5
0.0691827 0.01776 0.0025 0.5
0.0691827 0.01776 -0.0025 0.5
0.0691493 0.0180115 -0.0025 0.5
0.0691493 0.0180115 0.0025 0.5
0.0691839 0.01849 2.89623e-20 0.5
0.0716756 0.0002775 9.36031e-20 0.5
0.0691903 0.0185776 0.0025 0.5
0.0691903 0.0185776 -0.0025 0.5
0.0692727 0.01887 0.0025 0.5
0.0692727 0.01887 -0.0025 0.5
0.0692671 0.0192392 0.0025 0.5
0.0692671 0.0192392 -0.0025 0.5
0.0692812 0.0194159 -3.29446e-20 0.5
0.0719534 0.0002775 0.0025 0.5
0.0719534 0.0002775 -0.0025 0.5
0.0692945 0.0195834 0.0025 0.5
0.0692945 0.0195834 -0.0025 0.5
0.0693609 0.01998 0.0025 0.5
0.0693609 0.01998 -0.0025 0.5
0.0722313 0.000555 -0.0025 0.5
0.0722313 0.000555 0.0025 0.5
0.0694202 0.0205547 -1.33383e-18 0.5
0.0694141 0.0204961 -0.0025 0.5
0.0694141 0.0204961 0.0025 0.5
0.0694204 0.0205677 -0.0025 0.5
0.0694204 0.0205677 0.0025 0.5
0.0725091 0.0002775 0.0025 0.5
0.0725091 0.0002775 -0.0025 0.5
0.0694466 0.02109 -0.0025 0.5
0.0694466 0.02109 0.0025 0.5
0.0727869 0.0002775 1.145e-19 0.5
0.0695533 0.0216489 8.23208e-19 0.5
0.0695476 0.0215507 0.0025 0.5
0.0695476 0.0215507 -0.0025 0.5
0.0695593 0.0217511 0.0025 0.5
0.0695593 0.0217511 -0.0025 0.5
0.0695296 0.0222 0.0025 0.5
0.0695296 0.0222 -0.0025 0.5
0.0730647 0.0002775 0.0025 0.5
0.0730647 0.0002775 -0.0025 0.5
0.0696496 0.0225588 -0.0025 0.5
0.0696496 0.0225588 0.0025 0.5
0.0696603 0.0227623 6.31185e-20 0.5
0.0733425 0.000555 -0.0025 0.5
0.0733425 0.000555 0.0025 0.5
0.0696715 0.0229731 -0.0025 0.5
0.0696715 0.0229731 0.0025 0.5
0.0696095 0.02331 0.0025 0.5
0.0696095 0.02331 -0.0025 0.5
0.0697332 0.0235852 0.00126021 0.5
0.0697332 0.0235852 -0.00126021 0.5
0.0697332 0.0235852 0.0025 0.5
0.0697332 0.0235852 -0.0025 0.5
0.0736203 0.0002775 0.0025 0.5
0.0736203 0.0002775 -0.0025 0.5
0.0697466 0.023865 -1.03501e-18 0.5
0.069761 0.0241725 0.00138508 0.5
0.069761 0.0241725 -0.00138508 0.5
0.069761 0.0241725 0.0025 0.5
0.069761 0.0241725 -0.0025 0.5
0.0696853 0.02442 0.0025 0.5
0.0696853 0.02442 -0.0025 0.5
0.0738981 0.0002775 1.12679e-19 0.5
0.0698014 0.0246271 -0.00156721 0.5
0.0698014 0.0246271 0.00156721 0.5
0.0698014 0.0246271 0.0025 0.5
0.0698014 0.0246271 -0.0025 0.5
0.0698163 0.024975 1.33689e-18 0.5
0.0741759 0.0002775 0.0025 0.5
0.0741759 0.0002775 -0.0025 0.5
0.0698314 0.0253529 -0.00170203 0.5
0.0698314 0.0253529 0.00170203 0.5
0.0697554 0.02553 0.0025 0.5
0.0697554 0.02553 -0.0025 0.5
0.0698314 0.0253529 0.0025 0.5
0.0698314 0.0253529 -0.0025 0.5
0.0698567 0.0256818 0.00181604 0.5
0.0698567 0.0256818 -0.00181604 0.5
0.0698567 0.0256818 0.0025 0.5
0.0698567 0.0256818 -0.0025 0.5
0.0744538 0.000555 -0.0025 0.5
0.0744538 0.000555 0.0025 0.5
0.0698717 0.026085 -8.69664e-20 0.5
0.0698179 0.02664 0.0025 0.5
0.0698179 0.02664 -0.0025 0.5
0.0698858 0.0265172 -0.00194669 0.5
0.0698858 0.0265172 0.00194669 0.5
0.0747316 0.0002775 0.0025 0.5
0.0747316 0.0002775 -0.0025 0.5
0.0698858 0.0265172 0.0025 0.5
0.0698858 0.0265172 -0.0025 0.5
0.0699004 0.0267483 0.00201233 0.5
0.0699004 0.0267483 -0.00201233 0.5
0.0699004 0.0267483 0.0025 0.5
0.0699004 0.0267483 -0.0025 0.5
0.0750094 0.0002775 1.14375e-19 0.5
0.069914 0.027195 9.65145e-20 0.5
0.0698914 0.02775 0.0025 0.5
0.0698914 0.02775 -0.0025 0.5
0.0699381 0.0276795 0.00218224 0.5
0.0699381 0.0276795 -0.00218224 0.5
0.0699381 0.0276795 0.0025 0.5
0.0699381 0.0276795 -0.0025 0.5
0.0699444 0.0278143 0.00221031 0.5
0.0699444 0.0278143 -0.00221031 0.5
0.0699444 0.0278143 0.0025 0.5
0.0699444 0.0278143 -0.0025 0.5
0.0752872 0.0002775 0.0025 0.5
0.0752872 0.0002775 -0.0025 0.5
0.0699689 0.028305 -1.23216e-18 0.5
0.075565 0.000555 -0.0025 0.5
0.075565 0.000555 0.0025 0.5
0.0700024 0.02886 0.0025 0.5
0.0700024 0.02886 -0.0025 0.5
0.0700051 0.0288563 0.00248354 0.5
0.0700051 0.0288563 -0.00248354 0.5
0.0700051 0.0288563 0.0025 0.5
0.0700051 0.0288563 -0.0025 0.5
0.0700053 0.0288634 0.00248461 0.5
0.0700053 0.0288634 -0.00248461 0.5
0.0700053 0.0288634 0.0025 0.5
0.0700053 0.0288634 -0.0025 0.5
0.0700087 0.0289174 0.0025 0.5
0.0700088 0.0289174 -0.0025 0.5
0.0758428 0.0002775 0.0025 0.5
0.0758428 0.0002775 -0.0025 0.5
0.070044 0.029415 1.17958e-18 0.5
0.0761206 0.0002775 1.14623e-19 0.5
0.0700722 0.0299066 -0.00221447 0.5
0.0700722 0.0299066 0.00221447 0.5
0.0700722 0.0299066 0.0025 0.5
0.0700722 0.0299066 -0.0025 0.5
0.0700856 0.0300467 -0.00215435 0.5
0.0700856 0.0300467 0.00215435 0.5
0.0700856 0.0300467 0.0025 0.5
0.0700856 0.0300467 -0.0025 0.5
0.070123 0.02997 0.0025 0.5
0.070123 0.02997 -0.0025 0.5
0.0763984 0.0002775 0.0025 0.5
0.0763984 0.0002775 -0.0025 0.5
0.070115 0.030525 1.35916e-19 0.5
0.0701332 0.0309557 -0.00194021 0.5
0.0701332 0.0309557 0.00194021 0.5
0.0701332 0.0309557 0.0025 0.5
0.0701332 0.0309557 -0.0025 0.5
0.0766763 0.000555 -0.0025 0.5
0.0766763 0.000555 0.0025 0.5
0.0701533 0.0312244 -0.00184953 0.5
0.0701533 0.0312244 0.00184953 0.5
0.0702114 0.03108 -0.0025 0.5
0.0702114 0.03108 0.0025 0.5
0.0701533 0.0312244 0.0025 0.5
0.0701533 0.0312244 -0.0025 0.5
0.0701717 0.031635 8.92608e-20 0.5
0.0769541 0.0002775 0.0025 0.5
0.0769541 0.0002775 -0.0025 0.5
0.0702169 0.0319821 -0.00156361 0.5
0.0702169 0.0319821 0.00156361 0.5
0.0702169 0.0319821 0.0025 0.5
0.0702169 0.0319821 -0.0025 0.5
0.0772319 0.0002775 1.08196e-19 0.5
0.0703503 0.03219 0.0025 0.5
0.0703503 0.03219 -0.0025 0.5
0.0775097 0.0002775 0.0025 0.5
0.0775097 0.0002775 -0.0025 0.5
0.070375 0.0325558 0.0025 0.5
0.070375 0.0325558 -0.0025 0.5
0.0703987 0.0327319 -2.2974e-20 0.5
0.0704144 0.0328948 0.0025 0.5
0.0704144 0.0328948 -0.0025 0.5
0.0777875 0.000555 -0.0025 0.5
0.0777875 0.000555 0.0025 0.5
0.0704819 0.0333 -0.0025 0.5
0.0704819 0.0333 0.0025 0.5
0.0780653 0.0002775 0.0025 0.5
0.0780653 0.0002775 -0.0025 0.5
0.0704955 0.0338546 1.13096e-19 0.5
0.0704938 0.0337845 -0.0025 0.5
0.0704938 0.0337845 0.0025 0.5
0.0704949 0.0339243 -0.0025 0.5
0.0704949 0.0339243 0.0025 0.5
0.0783431 0.0002775 8.26565e-20 0.5
0.0704867 0.03441 0.0025 0.5
0.0704867 0.03441 -0.0025 0.5
0.0704149 0.0348157 0.0025 0.5
0.0704149 0.0348157 -0.0025 0.5
0.0704143 0.0349638 2.52273e-19 0.5
0.0786209 0.0002775 0.0025 0.5
0.0786209 0.0002775 -0.0025 0.5
0.0704184 0.0351108 0.0025 0.5
0.0704184 0.0351108 -0.0025 0.5
0.0788988 0.000555 -0.0025 0.5
0.0788988 0.000555 0.0025 0.5
0.070498 0.03552 0.0025 0.5
0.070498 0.03552 -0.0025 0.5
0.0791766 0.0002775 0.0025 0.5
0.0791766 0.0002775 -0.0025 0.5
0.0705179 0.0360286 -0.0025 0.5
0.0705179 0.0360286 0.0025 0.5
0.0705239 0.0361116 1.93377e-19 0.5
0.070523 0.0361163 -0.0025 0.5
0.070523 0.0361163 0.0025 0.5
0.0794544 0.0002775 9.54222e-20 0.5
0.07056 0.03663 0.0025 0.5
0.07056 0.03663 -0.0025 0.5
0.0797322 0.0002775 0.0025 0.5
0.0797322 0.0002775 -0.0025 0.5
0.0706176 0.0371864 1.2461e-20 0.5
0.0706155 0.037134 0.0025 0.5
0.0706155 0.037134 -0.0025 0.5
0.0706196 0.0372402 0.0025 0.5
0.0706196 0.0372402 -0.0025 0.5
0.08001 0.000555 -0.0025 0.5
0.08001 0.000555 0.0025 0.5
0.070609 0.03774 0.0025 0.5
0.070609 0.03774 -0.0025 0.5
0.0802878 0.0002775 0.0025 0.5
0.0802878 0.0002775 -0.0025 0.5
0.0706846 0.0381749 -0.0025 0.5
0.0706846 0.0381749 0.0025 0.5
0.0706885 0.0382975 -4.83028e-20 0.5
0.0706922 0.0384227 0.0025 0.5
0.0706922 0.0384227 -0.0025 0.5
0.0805656 0.0002775 1.15842e-19 0.5
0.0706496 0.03885 0.0025 0.5
0.0706496 0.03885 -0.0025 0.5
0.0808434 0.0002775 0.0025 0.5
0.0808434 0.0002775 -0.0025 0.5
0.0707368 0.0392328 0.0025 0.5
0.0707368 0.0392328 -0.0025 0.5
0.0707412 0.0394079 2.71449e-19 0.5
0.0707455 0.0395859 0.0025 0.5
0.0707455 0.0395859 -0.0025 0.5
0.0811213 0.000555 -0.0025 0.5
0.0811213 0.000555 0.0025 0.5
0.0706836 0.03996 0.0025 0.5
0.0706836 0.03996 -0.0025 0.5
0.0813991 0.0002775 0.0025 0.5
0.0813991 0.0002775 -0.0025 0.5
0.0707769 0.0403027 -0.0025 0.5
0.0707769 0.0403027 0.0025 0.5
0.0707812 0.0405178 2.46321e-19 0.5
0.0816769 0.0002775 9.5745e-20 0.5
0.0707853 0.0407356 -0.0025 0.5
0.0707853 0.0407356 0.0025 0.5
0.0707111 0.04107 0.0025 0.5
0.0707111 0.04107 -0.0025 0.5
0.0819547 0.0002775 0.0025 0.5
0.0819547 0.0002775 -0.0025 0.5
0.0708073 0.0413823 0.0025 0.5
0.0708073 0.0413823 -0.0025 0.5
0.0708111 0.0416274 1.58486e-19 0.5
0.0822325 0.000555 -0.0025 0.5
0.0822325 0.000555 0.0025 0.5
0.0708145 0.0418748 0.0025 0.5
0.0708145 0.0418748 -0.0025 0.5
0.070732 0.04218 0.0025 0.5
0.070732 0.04218 -0.0025 0.5
0.0825103 0.0002775 0.0025 0.5
0.0825103 0.0002775 -0.0025 0.5
0.070829 0.0424707 0.0025 0.5
0.070829 0.0424707 -0.0025 0.5
0.0708317 0.0427367 3.93724e-19 0.5
0.0827881 0.0002775 8.32524e-20 0.5
0.0708341 0.0430044 0.0025 0.5
0.0708341 0.0430044 -0.0025 0.5
0.070746 0.04329 0.0025 0.5
0.070746 0.04329 -0.0025 0.5
0.0830659 0.0002775 0.0025 0.5
0.0830659 0.0002775 -0.0025 0.5
0.070842 0.0435676 0.0025 0.5
0.070842 0.0435676 -0.0025 0.5
0.0708427 0.0436601 3.00482e-19 0.5
0.0833437 0.000555 -0.0025 0.5
0.0833437 0.000555 0.0025 0.5
0.0708446 0.0441249 -0.00126076 0.5
0.0708446 0.0441249 0.00126076 0.5
0.0708446 0.0441249 -0.0025 0.5
0.0708446 0.0441249 0.0025 0.5
0.0707527 0.0444 0.0025 0.5
0.0707527 0.0444 -0.0025 0.5
0.0836216 0.0002775 0.0025 0.5
0.0836216 0.0002775 -0.0025 0.5
0.0708468 0.0446729 0.00127093 0.5
0.0708468 0.0446729 -0.00127093 0.5
0.0708468 0.0446729 0.0025 0.5
0.0708468 0.0446729 -0.0025 0.5
0.0838994 0.0002775 3.228e-22 0.5
0.0708474 0.044955 6.72268e-20 0.5
0.0708466 0.0452369 -0.00126987 0.5
0.0708466 0.0452369 0.00126987 0.5
0.0708466 0.0452369 0.0025 0.5
0.0708466 0.0452369 -0.0025 0.5
0.0707521 0.04551 0.0025 0.5
0.0707521 0.04551 -0.0025 0.5
0.0841772 0.0002775 0.0025 0.5
0.0841772 0.0002775 -0.0025 0.5
0.0708434 0.0457863 -0.0012555 0.5
0.0708434 0.0457863 0.0012555 0.5
0.0708434 0.0457863 -0.0025 0.5
0.0708434 0.0457863 0.0025 0.5
0.084455 0.000555 -0.0025 0.5
0.084455 0.000555 0.0025 0.5
0.0708412 0.0462489 6.44712e-21 0.5
0.0708405 0.0463408 -0.0025 0.5
0.0708405 0.0463408 0.0025 0.5
0.0707442 0.04662 0.0025 0.5
0.0707442 0.04662 -0.0025 0.5
0.0847328 0.0002775 0.0025 0.5
0.0847328 0.0002775 -0.0025 0.5
0.0708316 0.0469081 -0.0025 0.5
0.0708316 0.0469081 0.0025 0.5
0.0850106 0.0002775 0 0.5
0.0708291 0.0471732 9.38799e-21 0.5
0.0708263 0.0474366 -0.0025 0.5
0.0708263 0.0474366 0.0025 0.5
0.0852884 0.0002775 0.0025 0.5
0.0852884 0.0002775 -0.0025 0.5
0.0707294 0.04773 0.0025 0.5
0.0707294 0.04773 -0.0025 0.5
0.0855663 0.000555 -0.0025 0.5
0.0855663 0.000555 0.0025 0.5
0.0708111 0.0480386 -0.0025 0.5
0.0708111 0.0480386 0.0025 0.5
0.0708076 0.0482826 2.49844e-19 0.5
0.0708039 0.0485242 0.0025 0.5
0.0708039 0.0485242 -0.0025 0.5
0.0858441 0.0002775 0.0025 0.5
0.0858441 0.0002775 -0.0025 0.5
0.0707082 0.04884 0.0025 0.5
0.0707082 0.04884 -0.0025 0.5
0.0861219 0.0002775 0 0.5
0.0707812 0.0491784 0.0025 0.5
0.0707812 0.0491784 -0.0025 0.5
0.0707772 0.0493922 2.23427e-19 0.5
0.0863997 0.0002775 0.0025 0.5
0.0863997 0.0002775 -0.0025 0.5
0.0707729 0.0496033 0.0025 0.5
0.0707729 0.0496033 -0.0025 0.5
0.0706815 0.04995 -0.0025 0.5
0.0706815 0.04995 0.0025 0.5
0.0866775 0.000555 -0.0025 0.5
0.0866775 0.000555 0.0025 0.5
0.0707413 0.0503283 0.0025 0.5
0.0707413 0.0503283 -0.0025 0.5
0.0707372 0.0505023 4.10778e-19 0.5
0.0869553 0.0002775 0.0025 0.5
0.0869553 0.0002775 -0.0025 0.5
0.070733 0.0506735 0.0025 0.5
0.070733 0.0506735 -0.0025 0.5
0.0706501 0.05106 0.0025 0.5
0.0706501 0.05106 -0.0025 0.5
0.0872331 0.0002775 0 0.5
0.0706905 0.051489 0.0025 0.5
0.0706905 0.051489 -0.0025 0.5
0.0706871 0.0516127 2.37189e-18 0.5
0.0875109 0.0002775 0.0025 0.5
0.0875109 0.0002775 -0.0025 0.5
0.0706837 0.0517342 -0.0025 0.5
0.0706837 0.0517342 0.0025 0.5
0.0877888 0.000555 -0.0025 0.5
0.0877888 0.000555 0.0025 0.5
0.0706148 0.05217 0.0025 0.5
0.0706148 0.05217 -0.0025 0.5
0.0880666 0.0002775 -0.00125 0.5
0.0880666 0.0002775 0.00125 0.5
0.0880666 0.0002775 0.0025 0.5
0.0880666 0.0002775 -0.0025 0.5
0.0706284 0.0526611 -0.0025 0.5
0.0706284 0.0526611 0.0025 0.5
0.0706264 0.0527237 -2.22676e-18 0.5
0.0706245 0.052785 -0.0025 0.5
0.0706245 0.052785 0.0025 0.5
0.0883444 0.0002775 0 0.5
0.0883444 0.00111 0.0025 0.5
0.0883444 0.00111 -0.0025 0.5
0.0883444 0.00222 0.0025 0.5
0.0883444 0.00222 -0.0025 0.5
0.0883444 0.00333 0.0025 0.5
0.0883444 0.00333 -0.0025 0.5
0.0705758 0.05328 -0.0025 0.5
0.0705758 0.05328 0.0025 0.5
0.0883444 0.00444 0.0025 0.5
0.0883444 0.00444 -0.0025 0.5
0.0883444 0.00555 0.0025 0.5
0.0883444 0.00555 -0.0025 0.5
0.0886222 0.000555 0 0.5
0.0883444 0.00666 0.0025 0.5
0.0883444 0.00666 -0.0025 0.5
0.0886222 0.0002775 -0.00125 0.5
0.0886222 0.0002775 0.00125 0.5
0.0886222 0.0008325 0.00125 0.5
0.0886222 0.0008325 -0.00125 0.5
0.0886222 0.001665 0 0.5
0.0886222 0.0002775 0.0025 0.5
0.0886222 0.0002775 -0.0025 0.5
0.0886222 0.0008325 0.0025 0.5
0.0886222 0.0008325 -0.0025 0.5
0.0886222 0.002775 0 0.5
0.0886222 0.0013875 0.0025 0.5
0.0886222 0.0013875 -0.0025 0.5
0.0886222 0.0019425 0.0025 0.5
0.0886222 0.0019425 -0.0025 0.5
0.0886222 0.0024975 0.0025 0.5
0.0886222 0.0024975 -0.0025 0.5
0.0886222 0.003885 0 0.5
0.0886222 0.0030525 0.0025 0.5
0.0886222 0.0030525 -0.0025 0.5
0.0883444 0.00777 0.0025 0.5
0.0883444 0.00777 -0.0025 0.5
0.0886222 0.0036075 0.0025 0.5
0.0886222 0.0036075 -0.0025 0.5
0.070555 0.0538241 1.34502e-18 0.5
0.0886222 0.0041625 0.0025 0.5
0.0886222 0.0041625 -0.0025 0.5
0.0886222 0.004995 -1.81603e-19 0.5
0.0705546 0.0538253 -0.0025 0.5
0.0705546 0.0538253 0.0025 0.5
0.0886222 0.0047175 0.0025 0.5
0.0886222 0.0047175 -0.0025 0.5
0.0705538 0.0538455 -0.0025 0.5
0.0705538 0.0538455 0.0025 0.5
0.0886222 0.0052725 0.0025 0.5
0.0886222 0.0052725 -0.0025 0.5
0.0883444 0.00888 0.0025 0.5
0.0883444 0.00888 -0.0025 0.5
0.0886222 0.006105 -4.31797e-21 0.5
0.0886222 0.0058275 0.0025 0.5
0.0886222 0.0058275 -0.0025 0.5
0.0886222 0.0063825 0.0025 0.5
0.0886222 0.0063825 -0.0025 0.5
0.0886222 0.007215 3.76366e-21 0.5
0.0886222 0.0069375 -0.0025 0.5
0.0886222 0.0069375 0.0025 0.5
0.0883444 0.00999 0.0025 0.5
0.0883444 0.00999 -0.0025 0.5
0.0886222 0.0074925 -0.0025 0.5
0.0886222 0.0074925 0.0025 0.5
0.0886222 0.008325 1.10296e-21 0.5
0.0886222 0.0080475 -0.0025 0.5
0.0886222 0.0080475 0.0025 0.5
0.0886222 0.0086025 -0.0025 0.5
0.0886222 0.0086025 0.0025 0.5
0.0883444 0.0111 0.0025 0.5
0.0883444 0.0111 -0.0025 0.5
0.0705344 0.05439 -0.0025 0.5
0.0705344 0.05439 0.0025 0.5
0.0886222 0.009435 1.92878e-21 0.5
0.0886222 0.0091575 0.0025 0.5
0.0886222 0.0091575 -0.0025 0.5
0.0886222 0.0097125 0.0025 0.5
0.0886222 0.0097125 -0.0025 0.5
0.0883444 0.01221 0.0025 0.5
0.0883444 0.01221 -0.0025 0.5
0.0886222 0.010545 3.88923e-21 0.5
0.0886222 0.0102675 0.0025 0.5
0.0886222 0.0102675 -0.0025 0.5
0.0886222 0.0108225 0.0025 0.5
0.0886222 0.0108225 -0.0025 0.5
0.0704843 0.054865 -0.0025 0.5
0.0704843 0.054865 0.0025 0.5
0.0704812 0.0549471 -9.74948e-19 0.5
0.0883444 0.01332 0.0025 0.5
0.0883444 0.01332 -0.0025 0.5
0.0886222 0.0113775 0.0025 0.5
0.0886222 0.0113775 -0.0025 0.5
0.0886222 0.011655 2.78619e-21 0.5
0.0704781 0.0550312 -0.0025 0.5
0.0704781 0.0550312 0.0025 0.5
0.0886222 0.0119325 0.0025 0.5
0.0886222 0.0119325 -0.0025 0.5
0.0886222 0.0124875 -0.0025 0.5
0.0886222 0.0124875 0.0025 0.5
0.0886222 0.012765 1.81655e-19 0.5
0.0883444 0.01443 0.0025 0.5
0.0883444 0.01443 -0.0025 0.5
0.0886222 0.0130425 -0.0025 0.5
0.0886222 0.0130425 0.0025 0.5
0.0886222 0.0135975 0.0025 0.5
0.0886222 0.0135975 -0.0025 0.5
0.0886222 0.013875 0 0.5
0.0883444 0.01554 0.0025 0.5
0.0883444 0.01554 -0.0025 0.5
0.0704922 0.0555 0.0025 0.5
0.0704922 0.0555 -0.0025 0.5
0.0886222 0.0141525 0.0025 0.5
0.0886222 0.0141525 -0.0025 0.5
0.0886222 0.0147075 -0.0025 0.5
0.0886222 0.0147075 0.0025 0.5
0.0886222 0.014985 7.52748e-21 0.5
0.0883444 0.01665 0.0025 0.5
0.0883444 0.01665 -0.0025 0.5
0.0704217 0.0559125 0.0025 0.5
0.0704217 0.0559125 -0.0025 0.5
0.0886222 0.0152625 -0.0025 0.5
0.0886222 0.0152625 0.0025 0.5
0.0704165 0.0560585 -2.17299e-18 0.5
0.0886222 0.0158175 0.0025 0.5
0.0886222 0.0158175 -0.0025 0.5
0.0886222 0.016095 0 0.5
0.0704112 0.056208 0.0025 0.5
0.0704112 0.056208 -0.0025 0.5
0.0883444 0.01776 0.0025 0.5
0.0883444 0.01776 -0.0025 0.5
0.0886222 0.0163725 0.0025 0.5
0.0886222 0.0163725 -0.0025 0.5
0.0886222 0.0169275 0.0025 0.5
0.0886222 0.0169275 -0.0025 0.5
0.0886222 0.017205 0 0.5
0.0886222 0.0174825 0.0025 0.5
0.0886222 0.0174825 -0.0025 0.5
0.0883444 0.01887 0.0025 0.5
0.0883444 0.01887 -0.0025 0.5
0.0704501 0.05661 0.0025 0.5
0.0704501 0.05661 -0.0025 0.5
0.0886222 0.0180375 0.0025 0.5
0.0886222 0.0180375 -0.0025 0.5
0.0886222 0.018315 -4.24739e-19 0.5
0.0703667 0.0569675 0.0025 0.5
0.0703667 0.0569675 -0.0025 0.5
0.0886222 0.0185925 0.0025 0.5
0.0886222 0.0185925 -0.0025 0.5
0.0883444 0.01998 0.0025 0.5
0.0883444 0.01998 -0.0025 0.5
0.07036 0.0571695 2.5867e-19 0.5
0.0886222 0.0191475 0.0025 0.5
0.0886222 0.0191475 -0.0025 0.5
0.0886222 0.019425 2.54579e-19 0.5
0.0703533 0.0573759 0.0025 0.5
0.0703533 0.0573759 -0.0025 0.5
0.0886222 0.0197025 0.0025 0.5
0.0886222 0.0197025 -0.0025 0.5
0.0883444 0.02109 0.0025 0.5
0.0883444 0.02109 -0.0025 0.5
0.0886222 0.0202575 0.0025 0.5
0.0886222 0.0202575 -0.0025 0.5
0.0886222 0.020535 -4.2863e-21 0.5
0.0886222 0.0208125 0.0025 0.5
0.0886222 0.0208125 -0.0025 0.5
0.0704091 0.05772 0.0025 0.5
0.0704091 0.05772 -0.0025 0.5
0.0883444 0.0222 0.0025 0.5
0.0883444 0.0222 -0.0025 0.5
0.0886222 0.0213675 0.0025 0.5
0.0886222 0.0213675 -0.0025 0.5
0.0703193 0.0580302 0.0025 0.5
0.0703193 0.0580302 -0.0025 0.5
0.0886222 0.021645 -2.44648e-21 0.5
0.0703118 0.0582799 2.53674e-18 0.5
0.0886222 0.0219225 0.0025 0.5
0.0886222 0.0219225 -0.0025 0.5
0.0883444 0.02331 0.0025 0.5
0.0883444 0.02331 -0.0025 0.5
0.0886222 0.0224775 0.0025 0.5
0.0886222 0.0224775 -0.0025 0.5
0.0886222 0.022755 -2.49561e-19 0.5
0.0703044 0.0585346 0.0025 0.5
0.0703044 0.0585346 -0.0025 0.5
0.0886222 0.0230325 0.0025 0.5
0.0886222 0.0230325 -0.0025 0.5
0.0883444 0.02442 0.0025 0.5
0.0883444 0.02442 -0.0025 0.5
0.0886222 0.0235875 0.0025 0.5
0.0886222 0.0235875 -0.0025 0.5
0.0703707 0.05883 0.0025 0.5
0.0703707 0.05883 -0.0025 0.5
0.0886222 0.023865 4.33092e-19 0.5
0.070279 0.0591 -0.00128391 0.5
0.070279 0.0591 0.00128391 0.5
0.070279 0.0591 0.0025 0.5
0.070279 0.0591 -0.0025 0.5
0.0886222 0.0241425 0.0025 0.5
0.0886222 0.0241425 -0.0025 0.5
0.0883444 0.02553 0.0025 0.5
0.0883444 0.02553 -0.0025 0.5
0.0702713 0.059385 -4.2955e-19 0.5
0.0886222 0.0246975 -0.0025 0.5
0.0886222 0.0246975 0.0025 0.5
0.0886222 0.024975 1.19177e-21 0.5
0.0886222 0.0252525 0.0025 0.5
0.0886222 0.0252525 -0.0025 0.5
0.0702641 0.0596849 -0.00135111 0.5
0.0702641 0.0596849 0.00135111 0.5
0.0702641 0.0596849 -0.0025 0.5
0.0702641 0.0596849 0.0025 0.5
0.0883444 0.02664 0.0025 0.5
0.0883444 0.02664 -0.0025 0.5
0.0886222 0.0258075 0.0025 0.5
0.0886222 0.0258075 -0.0025 0.5
0.0886222 0.026085 9.22105e-21 0.5
0.0703358 0.05994 -0.0025 0.5
0.0703358 0.05994 0.0025 0.5
0.0886222 0.0263625 0.0025 0.5
0.0886222 0.0263625 -0.0025 0.5
0.0702457 0.0601767 -0.00143379 0.5
0.0702457 0.0601767 0.00143379 0.5
0.0702457 0.0601767 0.0025 0.5
0.0702457 0.0601767 -0.0025 0.5
0.0883444 0.02775 0.0025 0.5
0.0883444 0.02775 -0.0025 0.5
0.0886222 0.0269175 0.0025 0.5
0.0886222 0.0269175 -0.0025 0.5
0.0702383 0.060495 2.2237e-18 0.5
0.0886222 0.027195 1.2044e-20 0.5
0.0886222 0.0274725 0.0025 0.5
0.0886222 0.0274725 -0.0025 0.5
0.0702318 0.0608272 -0.00149653 0.5
0.0702318 0.0608272 0.00149653 0.5
0.0702318 0.0608272 0.0025 0.5
0.0702318 0.0608272 -0.0025 0.5
0.0883444 0.02886 0.0025 0.5
0.0883444 0.02886 -0.0025 0.5
0.0886222 0.0280275 0.0025 0.5
0.0886222 0.0280275 -0.0025 0.5
0.0886222 0.028305 -8.22717e-21 0.5
0.0703055 0.06105 -0.0025 0.5
0.0703055 0.06105 0.0025 0.5
0.0886222 0.0285825 0.0025 0.5
0.0886222 0.0285825 -0.0025 0.5
0.0702187 0.0612597 0.0015555 0.5
0.0702187 0.0612597 -0.0015555 0.5
0.0702187 0.0612597 -0.0025 0.5
0.0702187 0.0612597 0.0025 0.5
0.0886222 0.0291375 0.0025 0.5
0.0886222 0.0291375 -0.0025 0.5
0.0883444 0.02997 0.0025 0.5
0.0883444 0.02997 -0.0025 0.5
0.0886222 0.029415 -6.85063e-19 0.5
0.070212 0.061605 -1.8532e-18 0.5
0.0886222 0.0296925 0.0025 0.5
0.0886222 0.0296925 -0.0025 0.5
0.0702064 0.0619625 -0.00161058 0.5
0.0702064 0.0619625 0.00161058 0.5
0.0702064 0.0619625 0.0025 0.5
0.0702064 0.0619625 -0.0025 0.5
0.0886222 0.0302475 0.0025 0.5
0.0886222 0.0302475 -0.0025 0.5
0.0883444 0.03108 0.0025 0.5
0.0883444 0.03108 -0.0025 0.5
0.0886222 0.030525 6.22217e-19 0.5
0.0886222 0.0308025 0.0025 0.5
0.0886222 0.0308025 -0.0025 0.5
0.0702801 0.06216 0.0025 0.5
0.0702801 0.06216 -0.0025 0.5
0.0701972 0.0623482 -0.00165226 0.5
0.0701972 0.0623482 0.00165226 0.5
0.0701972 0.0623482 0.0025 0.5
0.0701972 0.0623482 -0.0025 0.5
0.0886222 0.0313575 0.0025 0.5
0.0886222 0.0313575 -0.0025 0.5
0.0883444 0.03219 0.0025 0.5
0.0883444 0.03219 -0.0025 0.5
0.0886222 0.031635 -3.88923e-21 0.5
0.0701915 0.062715 -3.30123e-20 0.5
0.0886222 0.0319125 0.0025 0.5
0.0886222 0.0319125 -0.0025 0.5
0.0701863 0.0630926 -0.00170104 0.5
0.0701863 0.0630926 0.00170104 0.5
0.0701863 0.0630926 0.0025 0.5
0.0701863 0.0630926 -0.0025 0.5
0.0886222 0.0324675 0.0025 0.5
0.0886222 0.0324675 -0.0025 0.5
0.0883444 0.0333 0.0025 0.5
0.0883444 0.0333 -0.0025 0.5
0.0886222 0.032745 0 0.5
0.0702584 0.06327 0.0025 0.5
0.0702584 0.06327 -0.0025 0.5
0.0886222 0.0330225 0.0025 0.5
0.0886222 0.0330225 -0.0025 0.5
0.0701793 0.0634403 -0.00173267 0.5
0.0701793 0.0634403 0.00173267 0.5
0.0701793 0.0634403 0.0025 0.5
0.0701793 0.0634403 -0.0025 0.5
0.0886222 0.0335775 0.0025 0.5
0.0886222 0.0335775 -0.0025 0.5
0.0883444 0.03441 0.0025 0.5
0.0883444 0.03441 -0.0025 0.5
0.0701741 0.063825 0 0.5
0.0886222 0.033855 0 0.5
0.0886222 0.0341325 0.0025 0.5
0.0886222 0.0341325 -0.0025 0.5
0.0701667 0.0642222 -0.00178939 0.5
0.0701667 0.0642222 0.00178939 0.5
0.0701667 0.0642222 0.0025 0.5
0.0701667 0.0642222 -0.0025 0.5
0.0886222 0.0346875 0.0025 0.5
0.0886222 0.0346875 -0.0025 0.5
0.0883444 0.03552 0.0025 0.5
0.0883444 0.03552 -0.0025 0.5
0.0886222 0.034965 -3.39789e-22 0.5
0.0702341 0.06438 0.0025 0.5
0.0702341 0.06438 -0.0025 0.5
0.0701586 0.0645297 -0.00182572 0.5
0.0701586 0.0645297 0.00182572 0.5
0.0701586 0.0645297 0.0025 0.5
0.0701586 0.0645297 -0.0025 0.5
0.0886222 0.0352425 0.0025 0.5
0.0886222 0.0352425 -0.0025 0.5
0.0701512 0.064935 0 0.5
0.0886222 0.0357975 0.0025 0.5
0.0886222 0.0357975 -0.0025 0.5
0.0883444 0.03663 0.0025 0.5
0.0883444 0.03663 -0.0025 0.5
0.0886222 0.036075 1.76716e-21 0.5
0.0886222 0.0363525 0.0025 0.5
0.0886222 0.0363525 -0.0025 0.5
0.0701838 0.0653151 -0.00171222 0.5
0.0701838 0.0653151 0.00171222 0.5
0.0701838 0.0653151 0.0025 0.5
0.0701838 0.0653151 -0.0025 0.5
0.0886222 0.0369075 0.0025 0.5
0.0886222 0.0369075 -0.0025 0.5
0.0883444 0.03774 0.0025 0.5
0.0883444 0.03774 -0.0025 0.5
0.0702903 0.06549 0.0025 0.5
0.0702903 0.06549 -0.0025 0.5
0.0886222 0.037185 -6.78638e-19 0.5
0.0702629 0.0657438 -0.00135667 0.5
0.0702629 0.0657438 0.00135667 0.5
0.0886222 0.0374625 0.0025 0.5
0.0886222 0.0374625 -0.0025 0.5
0.0702629 0.0657438 0.0025 0.5
0.0702629 0.0657438 -0.0025 0.5
0.0886222 0.0380175 -0.0025 0.5
0.0886222 0.0380175 0.0025 0.5
0.0883444 0.03885 0.0025 0.5
0.0883444 0.03885 -0.0025 0.5
0.0886222 0.038295 1.29532e-18 0.5
0.0704423 0.0661669 0.0025 0.5
0.0704423 0.0661669 -0.0025 0.5
0.0886222 0.0385725 -0.0025 0.5
0.0886222 0.0385725 0.0025 0.5
0.0705301 0.0661588 2.37703e-19 0.5
0.0706864 0.0661669 0.0025 0.5
0.0706864 0.0661669 -0.0025 0.5
0.0886222 0.0391275 -0.0025 0.5
0.0886222 0.0391275 0.0025 0.5
0.0886222 0.039405 -6.22645e-19 0.5
0.0883444 0.03996 0.0025 0.5
0.0883444 0.03996 -0.0025 0.5
0.07112 0.0659468 -0.0025 0.5
0.07112 0.0659468 0.0025 0.5
0.0886222 0.0396825 -0.0025 0.5
0.0886222 0.0396825 0.0025 0.5
0.0886222 0.0402375 0.0025 0.5
0.0886222 0.0402375 -0.0025 0.5
0.0886222 0.040515 -2.0701e-21 0.5
0.0883444 0.04107 0.0025 0.5
0.0883444 0.04107 -0.0025 0.5
0.0713978 0.0663225 0.0025 0.5
0.0713978 0.0663225 -0.0025 0.5
0.0886222 0.0407925 0.0025 0.5
0.0886222 0.0407925 -0.0025 0.5
0.0716756 0.0663225 1.0842e-19 0.5
0.0886222 0.0413475 0.0025 0.5
0.0886222 0.0413475 -0.0025 0.5
0.0719534 0.0663225 0.0025 0.5
0.0719534 0.0663225 -0.0025 0.5
0.0722313 0.066045 -0.0025 0.5
0.0722313 0.066045 0.0025 0.5
0.0886222 0.041625 0 0.5
0.0883444 0.04218 0.0025 0.5
0.0883444 0.04218 -0.0025 0.5
0.0886222 0.0419025 0.0025 0.5
0.0886222 0.0419025 -0.0025 0.5