# f_l  POINT_DATA 1518
#  x  y  z  f_l
0.000375 0.000375 0 0.5
0.0015 0.00025 5.72608e-20 0.5
0.00025 0.0015 0 0.5
0.0025 0.00025 -1.6386e-20 0.5
0.00025 0.0025 1.89735e-19 0.5
0.00025 0.00025 0.0025 0.5
0.00025 0.00025 -0.0025 0.5
0.00075 0.00025 0.0025 0.5
0.00025 0.00075 0.0025 0.5
0.00025 0.00075 -0.0025 0.5
0.00075 0.00025 -0.0025 0.5
0.001 0.0005 -0.0025 0.5
0.001 0.0005 0.0025 0.5
0.0005 0.001 0.0025 0.5
0.0005 0.001 -0.0025 0.5
0.00125 0.00025 0.0025 0.5
0.00025 0.00125 -0.0025 0.5
0.00125 0.00025 -0.0025 0.5
0.00025 0.00125 0.0025 0.5
0.00175 0.00025 0.0025 0.5
0.00025 0.00175 -0.0025 0.5
0.00175 0.00025 -0.0025 0.5
0.00025 0.00175 0.0025 0.5
0.002 0.0005 -0.0025 0.5
0.002 0.0005 0.0025 0.5
0.0005 0.002 0.0025 0.5
0.0005 0.002 -0.0025 0.5
0.00025 0.00225 0.0025 0.5
0.00025 0.00225 -0.0025 0.5
0.00225 0.00025 0.0025 0.5
0.00225 0.00025 -0.0025 0.5
0.0035 0.00025 -1.38704e-19 0.5
0.00025 0.0035 -1.89735e-19 0.5
0.00025 0.00275 0.0025 0.5
0.00025 0.00275 -0.0025 0.5
0.00275 0.00025 0.0025 0.5
0.00275 0.00025 -0.0025 0.5
0.0005 0.003 -0.0025 0.5
0.003 0.0005 -0.0025 0.5
0.003 0.0005 0.0025 0.5
0.0005 0.003 0.0025 0.5
0.00025 0.00325 0.0025 0.5
0.00325 0.00025 0.0025 0.5
0.00025 0.00325 -0.0025 0.5
0.00325 0.00025 -0.0025 0.5
0.0045 0.00025 -5.72243e-20 0.5
0.00025 0.0045 0 0.5
0.00025 0.00375 0.0025 0.5
0.00375 0.00025 0.0025 0.5
0.00025 0.00375 -0.0025 0.5
0.00375 0.00025 -0.0025 0.5
0.004 0.0005 -0.0025 0.5
0.004 0.0005 0.0025 0.5
0.0005 0.004 0.0025 0.5
0.0005 0.004 -0.0025 0.5
0.00025 0.00425 0.0025 0.5
0.00425 0.00025 0.0025 0.5
0.00025 0.00425 -0.0025 0.5
0.00425 0.00025 -0.0025 0.5
0.00475 0.00025 0.0025 0.5
0.00475 0.00025 -0.0025 0.5
0.00025 0.00475 0.0025 0.5
0.00025 0.00475 -0.0025 0.5
0.00025 0.0055 0 0.5
0.0055 0.00025 -2.36936e-21 0.5
0.005 0.0005 -0.0025 0.5
0.005 0.0005 0.0025 0.5
0.0005 0.005 0.0025 0.5
0.0005 0.005 -0.0025 0.5
0.00025 0.00525 -0.0025 0.5
0.00525 0.00025 0.0025 0.5
0.00025 0.00525 0.0025 0.5
0.00525 0.00025 -0.0025 0.5
0.00025 0.00575 -0.0025 0.5
0.00575 0.00025 0.0025 0.5
0.00575 0.00025 -0.0025 0.5
0.00025 0.00575 0.0025 0.5
0.0065 0.00025 5.2773e-20 0.5
0.00025 0.0065 0 0.5
0.0005 0.006 0.0025 0.5
0.0005 0.006 -0.0025 0.5
0.006 0.0005 -0.0025 0.5
0.006 0.0005 0.0025 0.5
0.00625 0.00025 0.0025 0.5
0.00025 0.00625 0.0025 0.5
0.00025 0.00625 -0.0025 0.5
0.00625 0.00025 -0.0025 0.5
0.00706886 0.0005 -1.24455e-20 0.5
0.00025 0.00675 0.0025 0.5
0.00675 0.00025 0.0025 0.5
0.00025 0.00675 -0.0025 0.5
0.00675 0.00025 -0.0025 0.5
0.00713219 0.0015 1.24409e-19 0.5
0.00708942 0.000910577 -0.00205288 0.5
0.00708942 0.000910577 0.00205288 0.5
0.0005 0.007 0.0025 0.5
0.0005 0.007 -0.0025 0.5
0.00711051 0.00111051 -0.00194747 0.5
0.00711051 0.00111051 0.00194747 0.5
0.007 0.000858317 -0.0025 0.5
0.007 0.000858317 0.0025 0.5
0.00025 0.0075 -2.43945e-19 0.5
0.00708942 0.000910577 -0.0025 0.5
0.00708942 0.000910577 0.0025 0.5
0.00716178 0.0025 1.18864e-20 0.5
0.00714023 0.00185977 -0.00179885 0.5
0.00714023 0.00185977 0.00179885 0.5
0.00711051 0.00111051 -0.0025 0.5
0.00711051 0.00111051 0.0025 0.5
0.00716507 0.001 0.0025 0.5
0.00716507 0.001 -0.0025 0.5
0.00715367 0.00215367 0.00173164 0.5
0.00715367 0.00215367 -0.00173164 0.5
0.00025 0.00725 0.0025 0.5
0.00025 0.00725 -0.0025 0.5
0.00714023 0.00185977 -0.0025 0.5
0.00714023 0.00185977 0.0025 0.5
0.00715367 0.00215367 -0.0025 0.5
0.00715367 0.00215367 0.0025 0.5
0.00716862 0.00283138 -0.00165691 0.5
0.00716862 0.00283138 0.00165691 0.5
0.00722678 0.002 0.0025 0.5
0.00722678 0.002 -0.0025 0.5
0.00719028 0.0035 -2.54626e-19 0.5
0.00718346 0.00318346 -0.00158269 0.5
0.00718346 0.00318346 0.00158269 0.5
0.00716862 0.00283138 -0.0025 0.5
0.00716862 0.00283138 0.0025 0.5
0.00025 0.00775 0.0025 0.5
0.00025 0.00775 -0.0025 0.5
0.00726006 0.003 -0.0025 0.5
0.00726006 0.003 0.0025 0.5
0.00718346 0.00318346 0.0025 0.5
0.00718346 0.00318346 -0.0025 0.5
0.00719568 0.00380432 -0.0015216 0.5
0.00719568 0.00380432 0.0015216 0.5
0.0005 0.008 0.0025 0.5
0.0005 0.008 -0.0025 0.5
0.00721035 0.00421035 -0.00144826 0.5
0.00721035 0.00421035 0.00144826 0.5
0.00025 0.0085 2.43945e-19 0.5
0.00721568 0.0045 3.90003e-19 0.5
0.00719568 0.00380432 0.0025 0.5
0.00719568 0.00380432 -0.0025 0.5
0.00025 0.00825 0.0025 0.5
0.00025 0.00825 -0.0025 0.5
0.00728851 0.004 0.0025 0.5
0.00728851 0.004 -0.0025 0.5
0.00721035 0.00421035 0.0025 0.5
0.00721035 0.00421035 -0.0025 0.5
0.00721995 0.00478005 -0.00140023 0.5
0.00721995 0.00478005 0.00140023 0.5
0.00721995 0.00478005 0.0025 0.5
0.00721995 0.00478005 -0.0025 0.5
0.00723404 0.00523404 -0.00132982 0.5
0.00723404 0.00523404 0.00132982 0.5
0.00723823 0.0055 -7.66413e-20 0.5
0.00025 0.00875 -0.0025 0.5
0.00025 0.00875 0.0025 0.5
0.00731203 0.005 0.0025 0.5
0.00731203 0.005 -0.0025 0.5
0.00723404 0.00523404 -0.0025 0.5
0.00723404 0.00523404 0.0025 0.5
0.00724162 0.00575838 -0.00129191 0.5
0.00724162 0.00575838 0.00129191 0.5
0.0005 0.009 0.0025 0.5
0.0005 0.009 -0.0025 0.5
0.00025 0.0095 0 0.5
0.00724162 0.00575838 -0.0025 0.5
0.00724162 0.00575838 0.0025 0.5
0.00025 0.00925 -0.0025 0.5
0.00025 0.00925 0.0025 0.5
0.00725792 0.00649801 3.78286e-21 0.5
0.00733159 0.006 0.0025 0.5
0.00733159 0.006 -0.0025 0.5
0.00725483 0.00625483 -0.0025 0.5
0.00725483 0.00625483 0.0025 0.5
0.00025 0.00975 0.0025 0.5
0.00025 0.00975 -0.0025 0.5
0.00726081 0.00673919 -0.0025 0.5
0.00726081 0.00673919 0.0025 0.5
0.0005 0.01 0.0025 0.5
0.0005 0.01 -0.0025 0.5
0.00727529 0.00749843 -1.31336e-19 0.5
0.00734785 0.007 0.0025 0.5
0.00734785 0.007 -0.0025 0.5
0.00025 0.0105 0 0.5
0.00025 0.01025 -0.0025 0.5
0.00025 0.01025 0.0025 0.5
0.00727286 0.00727286 0.0025 0.5
0.00727286 0.00727286 -0.0025 0.5
0.00727757 0.00772243 0.0025 0.5
0.00727757 0.00772243 -0.0025 0.5
0.00025 0.01075 -0.0025 0.5
0.00025 0.01075 0.0025 0.5
0.00736137 0.008 0.0025 0.5
0.00736137 0.008 -0.0025 0.5
0.00729045 0.00849873 2.97649e-19 0.5
0.0005 0.011 0.0025 0.5
0.0005 0.011 -0.0025 0.5
0.00728849 0.00828849 0.0025 0.5
0.00728849 0.00828849 -0.0025 0.5
0.00025 0.0115 0 0.5
0.00025 0.01125 0.0025 0.5
0.00025 0.01125 -0.0025 0.5
0.0072923 0.0087077 -0.0025 0.5
0.0072923 0.0087077 0.0025 0.5
0.00737287 0.009 -0.0025 0.5
0.00737287 0.009 0.0025 0.5
0.00730401 0.00949898 -1.22566e-19 0.5
0.00025 0.01175 0.0025 0.5
0.00025 0.01175 -0.0025 0.5
0.00730243 0.00930243 -0.0025 0.5
0.00730243 0.00930243 0.0025 0.5
0.0005 0.012 0.0025 0.5
0.0005 0.012 -0.0025 0.5
0.00730549 0.00969451 -0.0025 0.5
0.00730549 0.00969451 0.0025 0.5
0.00025 0.0125 0 0.5
0.00025 0.01225 -0.0025 0.5
0.00025 0.01225 0.0025 0.5
0.00738257 0.01 -0.0025 0.5
0.00738257 0.01 0.0025 0.5
0.00731543 0.0104993 9.65958e-20 0.5
0.00731426 0.0103143 0.0025 0.5
0.00731426 0.0103143 -0.0025 0.5
0.00025 0.01275 -0.0025 0.5
0.00025 0.01275 0.0025 0.5
0.00731645 0.0106836 0.0025 0.5
0.00731645 0.0106836 -0.0025 0.5
0.0005 0.013 0.0025 0.5
0.0005 0.013 -0.0025 0.5
0.00738984 0.011 0.0025 0.5
0.00738984 0.011 -0.0025 0.5
0.00025 0.01325 0.0025 0.5
0.00025 0.01325 -0.0025 0.5
0.00025 0.0135 0 0.5
0.00732325 0.0114995 -4.3625e-20 0.5
0.00732252 0.0113225 0.0025 0.5
0.00732252 0.0113225 -0.0025 0.5
0.00025 0.01375 0.0025 0.5
0.00025 0.01375 -0.0025 0.5
0.00732387 0.0116761 0.0025 0.5
0.00732387 0.0116761 -0.0025 0.5
0.0005 0.014 0.0025 0.5
0.0005 0.014 -0.0025 0.5
0.00739447 0.012 -0.0025 0.5
0.00739447 0.012 0.0025 0.5
0.00025 0.01425 0.0025 0.5
0.00025 0.01425 -0.0025 0.5
0.00732805 0.0124997 2.95769e-21 0.5
0.00025 0.0145 0 0.5
0.0073276 0.0123276 0.0025 0.5
0.0073276 0.0123276 -0.0025 0.5
0.00732844 0.0126716 0.0025 0.5
0.00732844 0.0126716 -0.0025 0.5
0.00025 0.01475 0.0025 0.5
0.00025 0.01475 -0.0025 0.5
0.00739742 0.013 -0.0025 0.5
0.00739742 0.013 0.0025 0.5
0.0005 0.015 0.0025 0.5
0.0005 0.015 -0.0025 0.5
0.00733142 0.0134998 -6.44495e-20 0.5
0.00733109 0.0133311 0.0025 0.5
0.00733109 0.0133311 -0.0025 0.5
0.00025 0.01525 0.0025 0.5
0.00025 0.01525 -0.0025 0.5
0.00025 0.0155 0 0.5
0.00733174 0.0136683 0.0025 0.5
0.00733174 0.0136683 -0.0025 0.5
0.00025 0.01575 0.0025 0.5
0.00025 0.01575 -0.0025 0.5
0.00739973 0.014 0.0025 0.5
0.00739973 0.014 -0.0025 0.5
0.0005 0.016 0.0025 0.5
0.0005 0.016 -0.0025 0.5
0.00733444 0.0144999 4.76134e-20 0.5
0.00733419 0.0143342 0.0025 0.5
0.00733419 0.0143342 -0.0025 0.5
0.00025 0.01625 0.0025 0.5
0.00025 0.01625 -0.0025 0.5
0.00025 0.0165 0 0.5
0.00733464 0.0146654 0.0025 0.5
0.00733464 0.0146654 -0.0025 0.5
0.00740135 0.015 0.0025 0.5
0.00740135 0.015 -0.0025 0.5
0.00025 0.01675 0.0025 0.5
0.00025 0.01675 -0.0025 0.5
0.00733588 0.0154999 -5.32548e-21 0.5
0.00733578 0.0153358 0.0025 0.5
0.00733578 0.0153358 -0.0025 0.5
0.0005 0.017 0.0025 0.5
0.0005 0.017 -0.0025 0.5
0.00025 0.01725 -0.0025 0.5
0.00025 0.01725 0.0025 0.5
0.00733594 0.0156641 0.0025 0.5
0.00733594 0.0156641 -0.0025 0.5
0.00025 0.0175 0 0.5
0.00740191 0.016 0.0025 0.5
0.00740191 0.016 -0.0025 0.5
0.00025 0.01775 -0.0025 0.5
0.00025 0.01775 0.0025 0.5
0.00733604 0.0165 8.13324e-20 0.5
0.00733604 0.016336 0.0025 0.5
0.00733604 0.016336 -0.0025 0.5
0.0005 0.018 0.0025 0.5
0.0005 0.018 -0.0025 0.5
0.00733603 0.016664 0.0025 0.5
0.00733603 0.016664 -0.0025 0.5
0.00025 0.01825 0.0025 0.5
0.00025 0.01825 -0.0025 0.5
0.00025 0.0185 -4.33681e-19 0.5
0.00740185 0.017 0.0025 0.5
0.00740185 0.017 -0.0025 0.5
0.00025 0.01875 0.0025 0.5
0.00025 0.01875 -0.0025 0.5
0.00733576 0.0175 3.78825e-19 0.5
0.00733581 0.0173358 0.0025 0.5
0.00733581 0.0173358 -0.0025 0.5
0.0005 0.019 0.0025 0.5
0.0005 0.019 -0.0025 0.5
0.00733571 0.0176643 0.0025 0.5
0.00733571 0.0176643 -0.0025 0.5
0.00025 0.01925 0.0025 0.5
0.00025 0.01925 -0.0025 0.5
0.00025 0.0195 4.33681e-19 0.5
0.00740148 0.018 0.0025 0.5
0.00740148 0.018 -0.0025 0.5
0.00733502 0.0185 1.95829e-19 0.5
0.0073351 0.0183351 0.0025 0.5
0.0073351 0.0183351 -0.0025 0.5
0.00025 0.01975 0.0025 0.5
0.00025 0.01975 -0.0025 0.5
0.0005 0.02 0.0025 0.5
0.0005 0.02 -0.0025 0.5
0.00733495 0.018665 0.0025 0.5
0.00733495 0.018665 -0.0025 0.5
0.00025 0.02025 0.0025 0.5
0.00025 0.02025 -0.0025 0.5
0.00025 0.0205 0 0.5
0.00740096 0.019 0.0025 0.5
0.00740096 0.019 -0.0025 0.5
0.00733439 0.0193344 -0.0025 0.5
0.00733439 0.0193344 0.0025 0.5
0.00733432 0.0195 5.37792e-19 0.5
0.00025 0.02075 -0.0025 0.5
0.00025 0.02075 0.0025 0.5
0.00733425 0.0196658 0.0025 0.5
0.00733425 0.0196658 -0.0025 0.5
0.0005 0.021 0.0025 0.5
0.0005 0.021 -0.0025 0.5
0.00025 0.02125 0.0025 0.5
0.00025 0.02125 -0.0025 0.5
0.00740044 0.02 0.0025 0.5
0.00740044 0.02 -0.0025 0.5
0.00025 0.0215 0 0.5
0.00733363 0.0203336 -0.0025 0.5
0.00733363 0.0203336 0.0025 0.5
0.00733355 0.0205001 -4.36915e-19 0.5
0.00025 0.02175 0.0025 0.5
0.00025 0.02175 -0.0025 0.5
0.00733345 0.0206665 -0.0025 0.5
0.00733345 0.0206665 0.0025 0.5
0.0005 0.022 0.0025 0.5
0.0005 0.022 -0.0025 0.5
0.00025 0.02225 0.0025 0.5
0.00025 0.02225 -0.0025 0.5
0.0073998 0.021 0.0025 0.5
0.0073998 0.021 -0.0025 0.5
0.00025 0.0225 0 0.5
0.00733266 0.0213327 0.0025 0.5
0.00733266 0.0213327 -0.0025 0.5
0.00733257 0.0215001 -5.79464e-20 0.5
0.00025 0.02275 0.0025 0.5
0.00025 0.02275 -0.0025 0.5
0.00733248 0.0216675 0.0025 0.5
0.00733248 0.0216675 -0.0025 0.5
0.0005 0.023 0.0025 0.5
0.0005 0.023 -0.0025 0.5
0.00739914 0.022 0.0025 0.5
0.00739914 0.022 -0.0025 0.5
0.00025 0.02325 0.0025 0.5
0.00025 0.02325 -0.0025 0.5
0.00025 0.0235 0 0.5
0.00733182 0.0223318 -0.0025 0.5
0.00733182 0.0223318 0.0025 0.5
0.00733177 0.0225 5.79211e-19 0.5
0.00025 0.02375 0.0025 0.5
0.00025 0.02375 -0.0025 0.5
0.00733177 0.0226682 0.0025 0.5
0.00733177 0.0226682 -0.0025 0.5
0.0005 0.024 0.0025 0.5
0.0005 0.024 -0.0025 0.5
0.00739897 0.023 -0.0025 0.5
0.00739897 0.023 0.0025 0.5
0.00025 0.02425 0.0025 0.5
0.00025 0.02425 -0.0025 0.5
0.00025 0.0245 0 0.5
0.00733205 0.0233321 0.0025 0.5
0.00733205 0.0233321 -0.0025 0.5
0.00733209 0.0235 -4.72422e-19 0.5
0.00025 0.02475 0.0025 0.5
0.00025 0.02475 -0.0025 0.5
0.00733213 0.0236679 -0.0025 0.5
0.00733213 0.0236679 0.0025 0.5
0.0005 0.025 0.0025 0.5
0.0005 0.025 -0.0025 0.5
0.00739924 0.024 0.0025 0.5
0.00739924 0.024 -0.0025 0.5
0.00025 0.02525 -0.0025 0.5
0.00025 0.02525 0.0025 0.5
0.00025 0.0255 0 0.5
0.00733244 0.0243324 -0.0025 0.5
0.00733244 0.0243324 0.0025 0.5
0.00733246 0.0245 -6.79356e-20 0.5
0.00733246 0.0246675 0.0025 0.5
0.00733246 0.0246675 -0.0025 0.5
0.00025 0.02575 -0.0025 0.5
0.00025 0.02575 0.0025 0.5
0.0005 0.026 0.0025 0.5
0.0005 0.026 -0.0025 0.5
0.00739931 0.025 0.0025 0.5
0.00739931 0.025 -0.0025 0.5
0.00025 0.02625 0.0025 0.5
0.00025 0.02625 -0.0025 0.5
0.00733228 0.0253323 0.0025 0.5
0.00733228 0.0253323 -0.0025 0.5
0.00025 0.0265 0 0.5
0.00733224 0.0255 3.01837e-20 0.5
0.00733218 0.0256678 0.0025 0.5
0.00733218 0.0256678 -0.0025 0.5
0.00025 0.02675 0.0025 0.5
0.00025 0.02675 -0.0025 0.5
0.0005 0.027 0.0025 0.5
0.0005 0.027 -0.0025 0.5
0.00739895 0.026 0.0025 0.5
0.00739895 0.026 -0.0025 0.5
0.00025 0.02725 0.0025 0.5
0.00025 0.02725 -0.0025 0.5
0.00733156 0.0263316 0.0025 0.5
0.00733156 0.0263316 -0.0025 0.5
0.0073315 0.0265 -2.13619e-20 0.5
0.00025 0.0275 0 0.5
0.00733145 0.0266686 0.0025 0.5
0.00733145 0.0266686 -0.0025 0.5
0.00025 0.02775 0.0025 0.5
0.00025 0.02775 -0.0025 0.5
0.00739855 0.027 0.0025 0.5
0.00739855 0.027 -0.0025 0.5
0.0005 0.028 0.0025 0.5
0.0005 0.028 -0.0025 0.5
0.00025 0.02825 0.0025 0.5
0.00025 0.02825 -0.0025 0.5
0.0073312 0.0273312 0.0025 0.5
0.0073312 0.0273312 -0.0025 0.5
0.00733118 0.0275 2.90954e-20 0.5
0.00025 0.0285 0 0.5
0.00733118 0.0276688 0.0025 0.5
0.00733118 0.0276688 -0.0025 0.5
0.00025 0.02875 0.0025 0.5
0.00025 0.02875 -0.0025 0.5
0.00739848 0.028 0.0025 0.5
0.00739848 0.028 -0.0025 0.5
0.0005 0.029 0.0025 0.5
0.0005 0.029 -0.0025 0.5
0.00025 0.02925 0.0025 0.5
0.00025 0.02925 -0.0025 0.5
0.00733128 0.0283313 0.0025 0.5
0.00733128 0.0283313 -0.0025 0.5
0.0073313 0.0285 3.17739e-20 0.5
0.00025 0.0295 -1.6263e-19 0.5
0.00733134 0.0286687 0.0025 0.5
0.00733134 0.0286687 -0.0025 0.5
0.00025 0.02975 0.0025 0.5
0.00025 0.02975 -0.0025 0.5
0.0073987 0.029 0.0025 0.5
0.0073987 0.029 -0.0025 0.5
0.0005 0.03 0.0025 0.5
0.0005 0.03 -0.0025 0.5
0.00733172 0.0293317 0.0025 0.5
0.00733172 0.0293317 -0.0025 0.5
0.00025 0.03025 0.0025 0.5
0.00025 0.03025 -0.0025 0.5
0.00733178 0.0295 5.47764e-19 0.5
0.00025 0.0305 0 0.5
0.00733186 0.0296681 -0.0025 0.5
0.00733186 0.0296681 0.0025 0.5
0.00025 0.03075 0.0025 0.5
0.00025 0.03075 -0.0025 0.5
0.0073992 0.03 -0.0025 0.5
0.0073992 0.03 0.0025 0.5
0.0005 0.031 0.0025 0.5
0.0005 0.031 -0.0025 0.5
0.0073326 0.0303326 -0.0025 0.5
0.0073326 0.0303326 0.0025 0.5
0.00025 0.03125 0.0025 0.5
0.00025 0.03125 -0.0025 0.5
0.0073327 0.0304999 -1.03604e-18 0.5
0.00025 0.0315 0 0.5
0.00733281 0.0306672 -0.0025 0.5
0.00733281 0.0306672 0.0025 0.5
0.00025 0.03175 0.0025 0.5
0.00025 0.03175 -0.0025 0.5
0.00739996 0.031 0.0025 0.5
0.00739996 0.031 -0.0025 0.5
0.0005 0.032 0.0025 0.5
0.0005 0.032 -0.0025 0.5
0.00733375 0.0313337 0.0025 0.5
0.00733375 0.0313337 -0.0025 0.5
0.00733386 0.0314999 5.63177e-19 0.5
0.00025 0.03225 0.0025 0.5
0.00025 0.03225 -0.0025 0.5
0.00025 0.0325 0 0.5
0.00733396 0.031666 0.0025 0.5
0.00733396 0.031666 -0.0025 0.5
0.00025 0.03275 0.0025 0.5
0.00025 0.03275 -0.0025 0.5
0.00740071 0.032 0.0025 0.5
0.00740071 0.032 -0.0025 0.5
0.0005 0.033 0.0025 0.5
0.0005 0.033 -0.0025 0.5
0.00733469 0.0323347 0.0025 0.5
0.00733469 0.0323347 -0.0025 0.5
0.00733478 0.0324999 4.77469e-20 0.5
0.00025 0.03325 0.0025 0.5
0.00025 0.03325 -0.0025 0.5
0.00025 0.0335 0 0.5
0.00733488 0.0326651 0.0025 0.5
0.00733488 0.0326651 -0.0025 0.5
0.00025 0.03375 0.0025 0.5
0.00025 0.03375 -0.0025 0.5
0.00740141 0.033 0.0025 0.5
0.00740141 0.033 -0.0025 0.5
0.0005 0.034 0.0025 0.5
0.0005 0.034 -0.0025 0.5
0.00733572 0.0333357 -0.0025 0.5
0.00733572 0.0333357 0.0025 0.5
0.00733583 0.0334999 -1.15734e-18 0.5
0.00025 0.03425 0.0025 0.5
0.00025 0.03425 -0.0025 0.5
0.00025 0.0345 0 0.5
0.00733594 0.0336641 0.0025 0.5
0.00733594 0.0336641 -0.0025 0.5
0.00025 0.03475 0.0025 0.5
0.00025 0.03475 -0.0025 0.5
0.00740222 0.034 0.0025 0.5
0.00740222 0.034 -0.0025 0.5
0.0005 0.035 0.0025 0.5
0.0005 0.035 -0.0025 0.5
0.00733691 0.0343369 0.0025 0.5
0.00733691 0.0343369 -0.0025 0.5
0.00733706 0.0344999 2.54827e-18 0.5
0.00025 0.03525 0.0025 0.5
0.00025 0.03525 -0.0025 0.5
0.00025 0.0355 0 0.5
0.00733725 0.0346628 0.0025 0.5
0.00733725 0.0346628 -0.0025 0.5
0.00025 0.03575 0.0025 0.5
0.00025 0.03575 -0.0025 0.5
0.00740347 0.035 -0.0025 0.5
0.00740347 0.035 0.0025 0.5
0.0005 0.036 0.0025 0.5
0.0005 0.036 -0.0025 0.5
0.00733913 0.0353391 -0.0025 0.5
0.00733913 0.0353391 0.0025 0.5
0.00733939 0.0354998 2.70147e-20 0.5
0.00025 0.03625 0.0025 0.5
0.00025 0.03625 -0.0025 0.5
0.0073397 0.0356603 -0.0025 0.5
0.0073397 0.0356603 0.0025 0.5
0.00025 0.0365 0 0.5
0.00025 0.03675 0.0025 0.5
0.00025 0.03675 -0.0025 0.5
0.0074056 0.036 -0.0025 0.5
0.0074056 0.036 0.0025 0.5
0.0005 0.037 0.0025 0.5
0.0005 0.037 -0.0025 0.5
0.00734269 0.0363427 -0.0025 0.5
0.00734269 0.0363427 0.0025 0.5
0.00734308 0.0364997 -1.08427e-18 0.5
0.00025 0.03725 -0.0025 0.5
0.00025 0.03725 0.0025 0.5
0.0073435 0.0366565 -0.0025 0.5
0.0073435 0.0366565 0.0025 0.5
0.00025 0.0375 -6.77626e-19 0.5
0.00740864 0.037 0.0025 0.5
0.00740864 0.037 -0.0025 0.5
0.00025 0.03775 0.0025 0.5
0.00025 0.03775 -0.0025 0.5
0.0005 0.038 0.0025 0.5
0.0005 0.038 -0.0025 0.5
0.00734753 0.0373475 0.0025 0.5
0.00734753 0.0373475 -0.0025 0.5
0.00734794 0.0374997 -2.08566e-19 0.5
0.00025 0.03825 0.0025 0.5
0.00025 0.03825 -0.0025 0.5
0.0073483 0.0376517 0.0025 0.5
0.0073483 0.0376517 -0.0025 0.5
0.00025 0.0385 8.67362e-19 0.5
0.00741161 0.038 0.0025 0.5
0.00741161 0.038 -0.0025 0.5
0.00025 0.03875 0.0025 0.5
0.00025 0.03875 -0.0025 0.5
0.0005 0.039 0.0025 0.5
0.0005 0.039 -0.0025 0.5
0.00735127 0.0383513 0.0025 0.5
0.00735127 0.0383513 -0.0025 0.5
0.00735146 0.0384999 1.23213e-18 0.5
0.00025 0.03925 -0.0025 0.5
0.00025 0.03925 0.0025 0.5
0.00735153 0.0386485 0.0025 0.5
0.00735153 0.0386485 -0.0025 0.5
0.00025 0.0395 0 0.5
0.00741263 0.039 0.0025 0.5
0.00741263 0.039 -0.0025 0.5
0.00025 0.03975 -0.0025 0.5
0.00025 0.03975 0.0025 0.5
0.0005 0.04 0.0025 0.5
0.0005 0.04 -0.0025 0.5
0.00735098 0.039351 -0.0025 0.5
0.00735098 0.039351 0.0025 0.5
0.00735076 0.0395002 -1.18354e-18 0.5
0.00025 0.04025 0.0025 0.5
0.00025 0.04025 -0.0025 0.5
0.00735037 0.0396496 0.0025 0.5
0.00735037 0.0396496 -0.0025 0.5
0.00025 0.0405 6.77626e-19 0.5
0.00741023 0.04 0.0025 0.5
0.00741023 0.04 -0.0025 0.5
0.00025 0.04075 0.0025 0.5
0.00025 0.04075 -0.0025 0.5
0.0005 0.041 -0.0025 0.5
0.0005 0.041 0.0025 0.5
0.00734525 0.0403453 -0.0025 0.5
0.00734525 0.0403453 0.0025 0.5
0.00734443 0.0405006 -9.68113e-19 0.5
0.00025 0.04125 0.0025 0.5
0.00025 0.04125 -0.0025 0.5
0.00734334 0.0406567 -0.0025 0.5
0.00734334 0.0406567 0.0025 0.5
0.00025 0.0415 -6.77626e-19 0.5
0.00740299 0.041 0.0025 0.5
0.00740299 0.041 -0.0025 0.5
0.00025 0.04175 0.0025 0.5
0.00025 0.04175 -0.0025 0.5
0.00733187 0.0413319 0.0025 0.5
0.00733187 0.0413319 -0.0025 0.5
0.0005 0.042 0.0025 0.5
0.0005 0.042 -0.0025 0.5
0.00732998 0.0415014 1.0756e-18 0.5
0.00025 0.04225 0.0025 0.5
0.00025 0.04225 -0.0025 0.5
0.00732761 0.0416724 0.0025 0.5
0.00732761 0.0416724 -0.0025 0.5
0.00025 0.0425 0 0.5
0.00738799 0.042 0.0025 0.5
0.00738799 0.042 -0.0025 0.5
0.00025 0.04275 0.0025 0.5
0.00025 0.04275 -0.0025 0.5
0.00730701 0.042307 0.0025 0.5
0.00730701 0.042307 -0.0025 0.5
0.0005 0.043 0.0025 0.5
0.0005 0.043 -0.0025 0.5
0.00730334 0.0425026 0 0.5
0.00025 0.04325 0.0025 0.5
0.00025 0.04325 -0.0025 0.5
0.00729907 0.0427009 0.0025 0.5
0.00729907 0.0427009 -0.0025 0.5
0.00025 0.0435 0 0.5
0.00736299 0.043 0.0025 0.5
0.00736299 0.043 -0.0025 0.5
0.00025 0.04375 0.0025 0.5
0.00025 0.04375 -0.0025 0.5
0.00727205 0.0432721 0.0025 0.5
0.00727205 0.0432721 -0.0025 0.5
0.0072703 0.043348 1.7112e-20 0.5
0.0005 0.044 0.0025 0.5
0.0005 0.044 -0.0025 0.5
0.00025 0.04425 0.0025 0.5
0.00025 0.04425 -0.0025 0.5
0.00724476 0.0437552 -0.00127622 0.5
0.00724476 0.0437552 0.00127622 0.5
0.00724476 0.0437552 0.0025 0.5
0.00724476 0.0437552 -0.0025 0.5
0.00025 0.0445 -8.67362e-19 0.5
0.00729165 0.044 0.0025 0.5
0.00729165 0.044 -0.0025 0.5
0.00717764 0.0441776 -0.00161182 0.5
0.00717764 0.0441776 0.00161182 0.5
0.00025 0.04475 0.0025 0.5
0.00025 0.04475 -0.0025 0.5
0.00717764 0.0441776 -0.0025 0.5
0.00717764 0.0441776 0.0025 0.5
0.00715391 0.0445 9.51131e-20 0.5
0.0005 0.045 0.0025 0.5
0.0005 0.045 -0.0025 0.5
0.00025 0.04525 0.0025 0.5
0.00025 0.04525 -0.0025 0.5
0.00715388 0.0448461 -0.00173062 0.5
0.00715388 0.0448461 0.00173062 0.5
0.00715388 0.0448461 -0.0025 0.5
0.00715388 0.0448461 0.0025 0.5
0.00025 0.0455 1.49078e-18 0.5
0.0072353 0.045 0.0025 0.5
0.0072353 0.045 -0.0025 0.5
0.00715382 0.0451538 -0.0017309 0.5
0.00715382 0.0451538 0.0017309 0.5
0.00715382 0.0451538 0.0025 0.5
0.00715382 0.0451538 -0.0025 0.5
0.00025 0.04575 0.0025 0.5
0.00025 0.04575 -0.0025 0.5
0.00715379 0.0455 4.23292e-20 0.5
0.0005 0.046 -0.0025 0.5
0.0005 0.046 0.0025 0.5
0.00025 0.04625 0.0025 0.5
0.00025 0.04625 -0.0025 0.5
0.00717686 0.0458231 -0.00161572 0.5
0.00717686 0.0458231 0.00161572 0.5
0.00717686 0.0458231 0.0025 0.5
0.00717686 0.0458231 -0.0025 0.5
0.00025 0.0465 -8.67362e-19 0.5
0.00728982 0.046 0.0025 0.5
0.00728982 0.046 -0.0025 0.5
0.00025 0.04675 0.0025 0.5
0.00025 0.04675 -0.0025 0.5
0.00724112 0.0462411 -0.00129441 0.5
0.00724112 0.0462411 0.00129441 0.5
0.00724112 0.0462411 0.0025 0.5
0.00724112 0.0462411 -0.0025 0.5
0.0005 0.047 0.0025 0.5
0.0005 0.047 -0.0025 0.5
0.00726558 0.0466553 1.86736e-18 0.5
0.00025 0.04725 0.0025 0.5
0.00025 0.04725 -0.0025 0.5
0.00726703 0.046733 0.0025 0.5
0.00726703 0.046733 -0.0025 0.5
0.00025 0.0475 0 0.5
0.00735665 0.047 -0.0025 0.5
0.00735665 0.047 0.0025 0.5
0.00025 0.04775 0.0025 0.5
0.00025 0.04775 -0.0025 0.5
0.00728815 0.0472882 -0.0025 0.5
0.00728815 0.0472882 0.0025 0.5
0.0072917 0.0474978 -2.11737e-18 0.5
0.0005 0.048 0.0025 0.5
0.0005 0.048 -0.0025 0.5
0.00025 0.04825 0.0025 0.5
0.00025 0.04825 -0.0025 0.5
0.0072947 0.0477053 0.0025 0.5
0.0072947 0.0477053 -0.0025 0.5
0.00025 0.0485 0 0.5
0.00737638 0.048 0.0025 0.5
0.00737638 0.048 -0.0025 0.5
0.00025 0.04875 0.0025 0.5
0.00025 0.04875 -0.0025 0.5
0.00730919 0.0483092 0.0025 0.5
0.00730919 0.0483092 -0.0025 0.5
0.00731115 0.0484988 2.01468e-18 0.5
0.0005 0.049 0.0025 0.5
0.0005 0.049 -0.0025 0.5
0.00731276 0.0486872 -0.0025 0.5
0.00731276 0.0486872 0.0025 0.5
0.00025 0.04925 0.0025 0.5
0.00025 0.04925 -0.0025 0.5
0.00025 0.0495 0 0.5
0.00738798 0.049 0.0025 0.5
0.00738798 0.049 -0.0025 0.5
0.00025 0.04975 0.0025 0.5
0.00025 0.04975 -0.0025 0.5
0.00732128 0.0493213 0.0025 0.5
0.00732128 0.0493213 -0.0025 0.5
0.00732231 0.0494994 -2.13779e-18 0.5
0.0005 0.05 0.0025 0.5
0.0005 0.05 -0.0025 0.5
0.00732316 0.0496768 0.0025 0.5
0.00732316 0.0496768 -0.0025 0.5
0.00025 0.05025 -0.0025 0.5
0.00025 0.05025 0.0025 0.5
0.00025 0.0505 1.49078e-18 0.5
0.00739438 0.05 0.0025 0.5
0.00739438 0.05 -0.0025 0.5
0.00025 0.05075 -0.0025 0.5
0.00025 0.05075 0.0025 0.5
0.00732808 0.0503281 0.0025 0.5
0.00732808 0.0503281 -0.0025 0.5
0.00732864 0.0504997 -4.76636e-20 0.5
0.0005 0.051 -0.0025 0.5
0.0005 0.051 0.0025 0.5
0.0073291 0.0506709 0.0025 0.5
0.0073291 0.0506709 -0.0025 0.5
0.00025 0.05125 0.0025 0.5
0.00025 0.05125 -0.0025 0.5
0.00025 0.0515 -1.49078e-18 0.5
0.00739797 0.051 -0.0025 0.5
0.00739797 0.051 0.0025 0.5
0.00025 0.05175 0.0025 0.5
0.00025 0.05175 -0.0025 0.5
0.00733195 0.0513319 -0.0025 0.5
0.00733195 0.0513319 0.0025 0.5
0.00733226 0.0514998 2.16475e-19 0.5
0.0005 0.052 0.0025 0.5
0.0005 0.052 -0.0025 0.5
0.00733251 0.0516675 -0.0025 0.5
0.00733251 0.0516675 0.0025 0.5
0.00025 0.05225 0.0025 0.5
0.00025 0.05225 -0.0025 0.5
0.00025 0.0525 0 0.5
0.00739998 0.052 0.0025 0.5
0.00739998 0.052 -0.0025 0.5
0.00025 0.05275 0.0025 0.5
0.00025 0.05275 -0.0025 0.5
0.00733409 0.0523341 0.0025 0.5
0.00733409 0.0523341 -0.0025 0.5
0.00733425 0.0524999 -7.29605e-20 0.5
0.0005 0.053 0.0025 0.5
0.0005 0.053 -0.0025 0.5
0.00733436 0.0526656 0.0025 0.5
0.00733436 0.0526656 -0.0025 0.5
0.00025 0.05325 0.0025 0.5
0.00025 0.05325 -0.0025 0.5
0.00025 0.0535 0 0.5
0.00740094 0.053 0.0025 0.5
0.00740094 0.053 -0.0025 0.5
0.00025 0.05375 0.0025 0.5
0.00025 0.05375 -0.0025 0.5
0.00733491 0.0533349 0.0025 0.5
0.00733491 0.0533349 -0.0025 0.5
0.00733494 0.0535 -1.17009e-19 0.5
0.0005 0.054 0.0025 0.5
0.0005 0.054 -0.0025 0.5
0.00733493 0.0536651 0.0025 0.5
0.00733493 0.0536651 -0.0025 0.5
0.00025 0.05425 0.0025 0.5
0.00025 0.05425 -0.0025 0.5
0.00025 0.0545 0 0.5
0.007401 0.054 0.0025 0.5
0.007401 0.054 -0.0025 0.5
0.00025 0.05475 0.0025 0.5
0.00025 0.05475 -0.0025 0.5
0.00733451 0.0543345 0.0025 0.5
0.00733451 0.0543345 -0.0025 0.5
0.00733446 0.0545 1.32031e-19 0.5
0.0005 0.055 0.0025 0.5
0.0005 0.055 -0.0025 0.5
0.00733442 0.0546656 0.0025 0.5
0.00733442 0.0546656 -0.0025 0.5
0.00025 0.05525 0.0025 0.5
0.00025 0.05525 -0.0025 0.5
0.00025 0.0555 0 0.5
0.00740068 0.055 0.0025 0.5
0.00740068 0.055 -0.0025 0.5
0.00025 0.05575 0.0025 0.5
0.00025 0.05575 -0.0025 0.5
0.00733413 0.0553341 0.0025 0.5
0.00733413 0.0553341 -0.0025 0.5
0.00733408 0.0555 2.18437e-18 0.5
0.0005 0.056 0.0025 0.5
0.0005 0.056 -0.0025 0.5
0.00733402 0.055666 0.0025 0.5
0.00733402 0.055666 -0.0025 0.5
0.00025 0.05625 0.0025 0.5
0.00025 0.05625 -0.0025 0.5
0.00025 0.0565 0 0.5
0.00740026 0.056 -0.0025 0.5
0.00740026 0.056 0.0025 0.5
0.00025 0.05675 0.0025 0.5
0.00025 0.05675 -0.0025 0.5
0.00733338 0.0563334 -0.0025 0.5
0.00733338 0.0563334 0.0025 0.5
0.00733331 0.0565 -1.8393e-18 0.5
0.0005 0.057 0.0025 0.5
0.0005 0.057 -0.0025 0.5
0.00733324 0.0566668 0.0025 0.5
0.00733324 0.0566668 -0.0025 0.5
0.00025 0.05725 0.0025 0.5
0.00025 0.05725 -0.0025 0.5
0.00025 0.0575 0 0.5
0.00739974 0.057 0.0025 0.5
0.00739974 0.057 -0.0025 0.5
0.00025 0.05775 0.0025 0.5
0.00025 0.05775 -0.0025 0.5
0.00733271 0.0573327 0.0025 0.5
0.00733271 0.0573327 -0.0025 0.5
0.00733265 0.0575 1.02833e-19 0.5
0.0005 0.058 0.0025 0.5
0.0005 0.058 -0.0025 0.5
0.00733261 0.0576674 0.0025 0.5
0.00733261 0.0576674 -0.0025 0.5
0.00025 0.05825 0.0025 0.5
0.00025 0.05825 -0.0025 0.5
0.00025 0.0585 8.67362e-19 0.5
0.0073994 0.058 0.0025 0.5
0.0073994 0.058 -0.0025 0.5
0.00025 0.05875 0.0025 0.5
0.00025 0.05875 -0.0025 0.5
0.00733239 0.0583324 0.0025 0.5
0.00733239 0.0583324 -0.0025 0.5
0.00733237 0.0585 6.06583e-20 0.5
0.0005 0.059 0.0025 0.5
0.0005 0.059 -0.0025 0.5
0.00733237 0.0586676 0.0025 0.5
0.00733237 0.0586676 -0.0025 0.5
0.00025 0.05925 0.0025 0.5
0.00025 0.05925 -0.0025 0.5
0.00025 0.0595 -8.67362e-19 0.5
0.00739931 0.059 0.0025 0.5
0.00739931 0.059 -0.0025 0.5
0.00025 0.05975 0.0025 0.5
0.00025 0.05975 -0.0025 0.5
0.00733238 0.0593324 0.0025 0.5
0.00733238 0.0593324 -0.0025 0.5
0.00733237 0.0595 1.36316e-18 0.5
0.0005 0.06 0.0025 0.5
0.0005 0.06 -0.0025 0.5
0.00733235 0.0596677 0.0025 0.5
0.00733235 0.0596677 -0.0025 0.5
0.00025 0.06025 0.0025 0.5
0.00025 0.06025 -0.0025 0.5
0.00025 0.0605 0 0.5
0.00739919 0.06 -0.0025 0.5
0.00739919 0.06 0.0025 0.5
0.00025 0.06075 0.0025 0.5
0.00025 0.06075 -0.0025 0.5
0.00733207 0.0603321 -0.0025 0.5
0.00733207 0.0603321 0.0025 0.5
0.00733202 0.0605 -9.83227e-19 0.5
0.0005 0.061 0.0025 0.5
0.0005 0.061 -0.0025 0.5
0.00733194 0.0606681 -0.0025 0.5
0.00733194 0.0606681 0.0025 0.5
0.00025 0.06125 0.0025 0.5
0.00025 0.06125 -0.0025 0.5
0.00739872 0.061 0.0025 0.5
0.00739872 0.061 -0.0025 0.5
0.00025 0.0615 0 0.5
0.00025 0.06175 0.0025 0.5
0.00025 0.06175 -0.0025 0.5
0.00733117 0.0613312 0.0025 0.5
0.00733117 0.0613312 -0.0025 0.5
0.0073311 0.0615 -9.1589e-19 0.5
0.0005 0.062 0.0025 0.5
0.0005 0.062 -0.0025 0.5
0.00733104 0.061669 0.0025 0.5
0.00733104 0.061669 -0.0025 0.5
0.00025 0.06225 0.0025 0.5
0.00025 0.06225 -0.0025 0.5
0.00739822 0.062 0.0025 0.5
0.00739822 0.062 -0.0025 0.5
0.00025 0.0625 0 0.5
0.00025 0.06275 0.0025 0.5
0.00025 0.06275 -0.0025 0.5
0.00733071 0.0623307 0.0025 0.5
0.00733071 0.0623307 -0.0025 0.5
0.0073307 0.0625 1.3111e-18 0.5
0.0005 0.063 0.0025 0.5
0.0005 0.063 -0.0025 0.5
0.00733071 0.0626693 0.0025 0.5
0.00733071 0.0626693 -0.0025 0.5
0.00025 0.06325 0.0025 0.5
0.00025 0.06325 -0.0025 0.5
0.00739823 0.063 0.0025 0.5
0.00739823 0.063 -0.0025 0.5
0.00025 0.0635 0 0.5
0.00025 0.06375 0.0025 0.5
0.00025 0.06375 -0.0025 0.5
0.00733104 0.063331 0.0025 0.5
0.00733104 0.063331 -0.0025 0.5
0.00733107 0.0635 5.81362e-20 0.5
0.0005 0.064 0.0025 0.5
0.0005 0.064 -0.0025 0.5
0.0073311 0.0636689 0.0025 0.5
0.0073311 0.0636689 -0.0025 0.5
0.00025 0.06425 0.0025 0.5
0.00025 0.06425 -0.0025 0.5
0.00739842 0.064 0.0025 0.5
0.00739842 0.064 -0.0025 0.5
0.00025 0.0645 -1.49078e-18 0.5
0.0073312 0.0643312 0.0025 0.5
0.0073312 0.0643312 -0.0025 0.5
0.00025 0.06475 0.0025 0.5
0.00025 0.06475 -0.0025 0.5
0.00733121 0.0645 2.19118e-19 0.5
0.0005 0.065 0.0025 0.5
0.0005 0.065 -0.0025 0.5
0.00733121 0.0646688 0.0025 0.5
0.00733121 0.0646688 -0.0025 0.5
0.00025 0.06525 0.0025 0.5
0.00025 0.06525 -0.0025 0.5
0.00739844 0.065 0.0025 0.5
0.00739844 0.065 -0.0025 0.5
0.00025 0.0655 1.49078e-18 0.5
0.00733114 0.0653311 0.0025 0.5
0.00733114 0.0653311 -0.0025 0.5
0.00025 0.06575 0.0025 0.5
0.00025 0.06575 -0.0025 0.5
0.00733113 0.0655 2.81856e-19 0.5
0.0005 0.066 0.0025 0.5
0.0005 0.066 -0.0025 0.5
0.0073311 0.0656689 0.0025 0.5
0.0073311 0.0656689 -0.0025 0.5
0.00025 0.06625 0.0025 0.5
0.00025 0.06625 -0.0025 0.5
0.00739831 0.066 0.0025 0.5
0.00739831 0.066 -0.0025 0.5
0.00025 0.0665 0 0.5
0.00733088 0.0663309 0.0025 0.5
0.00733088 0.0663309 -0.0025 0.5
0.00025 0.06675 0.0025 0.5
0.00025 0.06675 -0.0025 0.5
0.00733085 0.0665 1.55393e-19 0.5
0.0005 0.067 0.0025 0.5
0.0005 0.067 -0.0025 0.5
0.00733081 0.0666692 0.0025 0.5
0.00733081 0.0666692 -0.0025 0.5
0.00025 0.06725 0.0025 0.5
0.00025 0.06725 -0.0025 0.5
0.00739809 0.067 0.0025 0.5
0.00739809 0.067 -0.0025 0.5
0.00025 0.0675 0 0.5
0.00733055 0.0673306 0.0025 0.5
0.00733055 0.0673306 -0.0025 0.5
0.00025 0.06775 0.0025 0.5
0.00025 0.06775 -0.0025 0.5
0.00733053 0.0675 -2.11849e-18 0.5
0.0005 0.068 0.0025 0.5
0.0005 0.068 -0.0025 0.5
0.00733053 0.0676695 0.0025 0.5
0.00733053 0.0676695 -0.0025 0.5