0 	0 	0 	0
0.000446734 	-7.94396e-06 	-4.92825e-05 	3.77808e-27
0.000893467 	-1.58879e-05 	-9.85649e-05 	7.55616e-27
0.0013402 	-2.02619e-05 	-0.000121475 	1.48495e-26
0.00178693 	-2.12399e-05 	-0.000119298 	2.54866e-26
0.00223367 	-2.15929e-05 	-0.000115728 	3.57883e-26
0.0026804 	2.4305e-06 	-5.77969e-05 	3.30102e-26
0.00312714 	2.64539e-05 	1.34617e-07 	3.02321e-26
0.00357387 	7.31579e-05 	9.05393e-05 	1.94828e-26
0.0040206 	0.000139378 	0.000208886 	1.87463e-27
0.00446734 	0.00020845 	0.000330244 	-1.5131e-26
0.00491407 	0.000331715 	0.000508814 	-2.06881e-26
0.0053608 	0.00045498 	0.000687383 	-2.62453e-26
0.00580754 	0.000614909 	0.000894318 	-1.4444e-26
0.00625427 	0.000803352 	0.00112331 	1.08584e-26
0.00670101 	0.000996546 	0.00135456 	3.70548e-26
0.00714774 	0.00124832 	0.00161362 	7.4278e-26
0.00759447 	0.0015001 	0.00187268 	1.11501e-25
0.00804121 	0.00178209 	0.0021336 	1.16086e-25
0.00848794 	0.00208529 	0.00239583 	9.77549e-26
0.00893467 	0.00239182 	0.00265573 	8.18858e-26
0.00938141 	0.00272824 	0.00289471 	8.81758e-26
0.00982814 	0.00306466 	0.0031337 	9.44659e-26
0.0102749 	0.00340962 	0.00334626 	1.69445e-25
0.0107216 	0.00375999 	0.0035421 	2.87881e-25
0.0111683 	0.00411007 	0.00373121 	3.8449e-25
0.0116151 	0.00445819 	0.00387321 	3.28312e-25
0.0120618 	0.00480631 	0.0040152 	2.72135e-25
0.0125085 	0.00514583 	0.00412151 	1.01549e-25
0.0129553 	0.00548047 	0.00420754 	-1.34092e-25
0.013402 	0.00581214 	0.00428577 	-3.51872e-25
0.0138487 	0.00612697 	0.00431984 	-4.6844e-25
0.0142955 	0.00644181 	0.00435392 	-5.85007e-25
0.0147422 	0.00674179 	0.00435846 	-5.43649e-25
0.0151889 	0.00703422 	0.00434797 	-4.21838e-25
0.0156357 	0.00732267 	0.00433117 	-2.69485e-25
0.0160824 	0.00759239 	0.00428463 	2.68553e-26
0.0165291 	0.00786212 	0.00423809 	3.23195e-25
0.0169759 	0.00811685 	0.00417244 	4.12635e-25
0.0174226 	0.00836477 	0.00409811 	4.0803e-25
0.0178693 	0.00860858 	0.00401967 	3.71836e-25
0.0183161 	0.00883599 	0.00392482 	2.09285e-25
0.0187628 	0.00906339 	0.00382998 	4.67335e-26
0.0192095 	0.00927715 	0.00372487 	0
0.0196563 	0.00948539 	0.00361561 	0
0.020103 	0.00968961 	0.00350423 	-3.86959e-26
0.0205497 	0.00987995 	0.0033855 	-2.10678e-25
0.0209965 	0.0100703 	0.00326678 	-3.82659e-25
0.0214432 	0.0102482 	0.00314394 	-6.13304e-25
0.0218899 	0.0104218 	0.00301963 	-8.64828e-25
0.0223367 	0.0105914 	0.00289469 	-1.03966e-24
0.0227834 	0.0107492 	0.00276781 	-9.84395e-25
0.0232302 	0.010907 	0.00264093 	-9.29134e-25
0.0236769 	0.0110535 	0.0025138 	-6.25409e-25
0.0241236 	0.0111964 	0.00238659 	-2.44294e-25
0.0245704 	0.0113355 	0.00225975 	1.08206e-25
0.0250171 	0.0114645 	0.00213386 	3.85266e-25
0.0254638 	0.0115934 	0.00200796 	6.62325e-25
0.0259106 	0.011712 	0.001884 	6.81331e-25
0.0263573 	0.0118278 	0.00176056 	6.30703e-25
0.026804 	0.0119398 	0.00163808 	5.70026e-25
0.0272508 	0.0120431 	0.00151783 	4.85898e-25
0.0276975 	0.0121464 	0.00139758 	4.01771e-25
0.0281442 	0.0122401 	0.00128029 	4.11467e-25
0.028591 	0.0123316 	0.00116367 	4.42815e-25
0.0290377 	0.0124194 	0.0010483 	4.2939e-25
0.0294844 	0.0124996 	0.000935522 	3.22976e-25
0.0299312 	0.0125798 	0.000822741 	2.16562e-25
0.0303779 	0.0126511 	0.0007132 	-3.27541e-26
0.0308246 	0.0127206 	0.000604288 	-3.09797e-25
0.0312714 	0.0127865 	0.000496698 	-4.79304e-25
0.0317181 	0.0128457 	0.000391561 	-4.49101e-25
0.0321648 	0.0129049 	0.000286425 	-4.18898e-25
0.0326116 	0.0129556 	0.000184384 	-1.35581e-25
0.0330583 	0.0130049 	8.28367e-05 	1.88088e-25
0.033505 	0.0130507 	-1.74551e-05 	4.12957e-25
0.0339518 	0.0130906 	-0.000115655 	4.73158e-25
0.0343985 	0.0131305 	-0.000213854 	5.33359e-25
0.0348452 	0.0131623 	-0.000309309 	3.48946e-25
0.035292 	0.0131931 	-0.000404416 	1.33526e-25
0.0357387 	0.0132203 	-0.000498387 	1.31908e-26
0.0361854 	0.0132423 	-0.000590655 	3.54835e-26
0.0366322 	0.0132643 	-0.000682924 	5.77761e-26
0.0370789 	0.0132786 	-0.000772838 	2.62839e-25
0.0375256 	0.0132922 	-0.000862526 	4.85427e-25
0.0379724 	0.0133022 	-0.000951224 	5.66232e-25
0.0384191 	0.0133076 	-0.00103858 	4.5521e-25
0.0388658 	0.013313 	-0.00112594 	3.44188e-25
0.0393126 	0.0133108 	-0.00121133 	4.92925e-27
0.0397593 	0.0133082 	-0.00129659 	-3.49545e-25
0.040206 	0.0133021 	-0.00138099 	-5.67928e-25
0.0406528 	0.0132916 	-0.00146434 	-6.19977e-25
0.0410995 	0.0132811 	-0.00154768 	-6.72027e-25
0.0415462 	0.0132629 	-0.0016293 	-5.15998e-25
0.041993 	0.0132445 	-0.00171085 	-3.51862e-25
0.0424397 	0.0132222 	-0.00179156 	-2.39854e-25
0.0428864 	0.0131955 	-0.00187134 	-1.85461e-25
0.0433332 	0.0131688 	-0.00195112 	-1.31067e-25
0.0437799 	0.0131334 	-0.00202901 	-1.04482e-25
0.0442266 	0.0130979 	-0.00210688 	-7.82485e-26
0.0446734 	0.0130574 	-0.00218363 	-5.20401e-26
0.0451201 	0.0130121 	-0.00225926 	-2.58564e-26
0.0455668 	0.0129665 	-0.00233486 	9.89361e-28
0.0460136 	0.0129099 	-0.00240766 	8.01383e-26
0.0464603 	0.0128532 	-0.00248046 	1.59287e-25
0.046907 	0.0127896 	-0.00255129 	3.06787e-25
0.0473538 	0.0127197 	-0.00262034 	5.16128e-25
0.0478005 	0.0126492 	-0.00268921 	7.166e-25
0.0482472 	0.0125635 	-0.00275325 	6.89448e-25
0.048694 	0.0124779 	-0.00281729 	6.62296e-25
0.0491407 	0.012382 	-0.00287766 	5.24888e-25
0.0495874 	0.0122778 	-0.00293504 	2.97272e-25
0.0500342 	0.0121722 	-0.00299188 	8.41068e-26
0.0504809 	0.0120461 	-0.00304059 	8.77004e-26
0.0509276 	0.0119201 	-0.0030893 	9.12941e-26
0.0513744 	0.0117797 	-0.00313172 	1.0333e-25
0.0518211 	0.0116287 	-0.00316949 	1.21605e-25
0.0522678 	0.0114753 	-0.00320608 	1.33417e-25
0.0527146 	0.0112964 	-0.00323046 	7.78266e-26
0.0531613 	0.0111175 	-0.00325485 	2.22362e-26
0.053608 	0.0109206 	-0.00326977 	0
0.0540548 	0.0107116 	-0.00327839 	0
0.0545015 	0.0104991 	-0.003285 	0
0.0549482 	0.010259 	-0.00327578 	0
0.055395 	0.0100188 	-0.00326655 	0
0.0558417 	0.00975961 	-0.00324524 	1.54947e-26
0.0562884 	0.0094889 	-0.00321667 	4.02863e-26
0.0567352 	0.00921433 	-0.00318535 	6.43513e-26
0.0571819 	0.00891552 	-0.00313679 	8.38591e-26
0.0576286 	0.0086167 	-0.00308824 	1.03367e-25
0.0580754 	0.0083026 	-0.00302699 	1.02348e-25
0.0585221 	0.00798026 	-0.0029589 	9.02766e-26
0.0589688 	0.00765518 	-0.00288791 	7.46371e-26
0.0594156 	0.00731595 	-0.00280194 	4.06081e-26
0.0598623 	0.00697671 	-0.00271598 	6.57918e-27
0.060309 	0.00663168 	-0.00261985 	-1.77764e-26
0.0607558 	0.00628386 	-0.00251884 	-3.74745e-26
0.0612025 	0.0059362 	-0.00241572 	-4.98392e-26
0.0616492 	0.00558919 	-0.00230347 	-3.04259e-26
0.062096 	0.00524219 	-0.00219122 	-1.10127e-26
0.0625427 	0.0049025 	-0.00207419 	-1.5429e-27
0.0629894 	0.00456594 	-0.00195511 	3.6654e-27
0.0634362 	0.00423351 	-0.00183555 	5.88051e-27
0.0638829 	0.00391637 	-0.00171416 	-2.99677e-27
0.0643296 	0.00359924 	-0.00159277 	-1.18741e-26
0.0647764 	0.00330158 	-0.00147267 	-1.96323e-26
0.0652231 	0.0030113 	-0.00135305 	-2.69661e-26
0.0656698 	0.00272867 	-0.0012346 	-3.38329e-26
0.0661166 	0.00247056 	-0.00111988 	-3.92002e-26
0.0665633 	0.00221245 	-0.00100517 	-4.45676e-26
0.0670101 	0.00198061 	-0.000895514 	-3.40625e-26
0.0674568 	0.00175752 	-0.000787541 	-1.82666e-26
0.0679035 	0.00154376 	-0.000681438 	-2.65681e-27
0.0683503 	0.0013562 	-0.00058059 	1.24302e-26
0.068797 	0.00116864 	-0.000479743 	2.75171e-26
0.0692437 	0.00100752 	-0.000383825 	3.16104e-26
0.0696905 	0.000854076 	-0.00028934 	3.2512e-26
0.0701372 	0.000709705 	-0.000196385 	3.61113e-26
0.0705839 	0.000587811 	-0.000107226 	4.63962e-26
0.0710307 	0.000465918 	-1.80676e-05 	5.6681e-26
0.0714774 	0.000367017 	6.64984e-05 	5.38594e-26
0.0719241 	0.000273863 	0.000149916 	4.7761e-26
0.0723709 	0.000189009 	0.000230182 	3.58526e-26
0.0728176 	0.000122415 	0.000303514 	1.11618e-26
0.0732643 	5.58207e-05 	0.000376846 	-1.3529e-26
0.0737111 	1.00967e-05 	0.000433179 	-2.85207e-26
0.0741578 	-3.12005e-05 	0.000485907 	-4.14549e-26
0.0746045 	-6.43692e-05 	0.000526058 	-5.17727e-26
0.0750513 	-8.15822e-05 	0.000541521 	-5.69548e-26
0.075498 	-9.87952e-05 	0.000556983 	-6.21368e-26
0.0759447 	-9.83525e-05 	0.000525953 	-5.53892e-26
0.0763915 	-9.47941e-05 	0.000486719 	-4.65364e-26
0.0768382 	-8.6455e-05 	0.000425115 	-3.48516e-26
0.0772849 	-6.97083e-05 	0.00032417 	-1.81864e-26
0.0777317 	-5.29616e-05 	0.000223226 	-1.52114e-27
0.0781784 	-3.47505e-05 	8.14388e-05 	-6.71307e-28
0.0786251 	-1.63302e-05 	-6.61831e-05 	-2.08081e-27
0.0790719 	-1.43542e-06 	-0.000215882 	-8.98225e-27
0.0795186 	7.88665e-06 	-0.000368863 	-2.45645e-26
0.0799653 	1.72087e-05 	-0.000521844 	-4.01467e-26
0.0804121 	1.58935e-05 	-0.000620103 	-4.77181e-26
0.0808588 	1.33964e-05 	-0.000712281 	-5.43995e-26
0.0813055 	9.97113e-06 	-0.000742468 	-4.58791e-26
0.0817523 	5.22402e-06 	-0.000684361 	-1.57077e-26
0.082199 	4.76904e-07 	-0.000626255 	1.44638e-26
0.0826457 	-3.31137e-07 	-0.000469723 	2.70345e-26
0.0830925 	-8.19794e-07 	-0.00030521 	3.81782e-26
0.0835392 	-8.96399e-07 	-0.000175328 	3.68969e-26
0.0839859 	-4.43222e-07 	-8.99708e-05 	1.96405e-26
0.0844327 	9.95504e-09 	-4.61332e-06 	2.38403e-27
0.0848794 	3.23629e-08 	-3.02126e-07 	8.69909e-28
0.0853261 	3.20987e-08 	-2.56519e-07 	1.84336e-28
0.0857729 	3.17777e-08 	-2.49644e-07 	-1.13952e-28
0.0862196 	3.13909e-08 	-2.87781e-07 	3.78482e-29
0.0866663 	3.1004e-08 	-3.25917e-07 	1.89649e-28
0.0871131 	2.55673e-08 	-3.66371e-07 	1.13014e-27
0.0875598 	2.0001e-08 	-4.06885e-07 	2.09086e-27
0.0880065 	1.37876e-08 	-3.43838e-07 	2.07697e-27
0.0884533 	6.89379e-09 	-1.71919e-07 	1.03849e-27
0.0889 	1.75959e-22 	-1.22074e-20 	9.39707e-41
