0 	0 	0 	0
0.000446734 	-1.51476e-05 	-0.000111134 	7.39401e-26
0.000893467 	-3.02952e-05 	-0.000222267 	1.4788e-25
0.0013402 	-4.65594e-05 	-0.000305657 	2.59415e-25
0.00178693 	-6.38857e-05 	-0.000362657 	4.06711e-25
0.00223367 	-8.07162e-05 	-0.000418065 	5.48487e-25
0.0026804 	-7.82086e-05 	-0.000411403 	4.75009e-25
0.00312714 	-7.5701e-05 	-0.00040474 	4.01532e-25
0.00357387 	-4.95975e-05 	-0.000358577 	2.49532e-25
0.0040206 	-3.19062e-06 	-0.000278425 	2.99664e-26
0.00446734 	4.67139e-05 	-0.000194164 	-1.8038e-25
0.00491407 	0.000163073 	-3.18167e-05 	-2.15564e-25
0.0053608 	0.000279432 	0.00013053 	-2.50748e-25
0.00580754 	0.000448709 	0.00034032 	-1.68035e-25
0.00625427 	0.000659146 	0.00058701 	6.3758e-27
0.00670101 	0.000877649 	0.000839069 	1.80748e-25
0.00714774 	0.00119566 	0.00115734 	3.54634e-25
0.00759447 	0.00151366 	0.00147562 	5.2852e-25
0.00804121 	0.0018912 	0.00181735 	5.4024e-25
0.00848794 	0.00231052 	0.00217555 	4.38098e-25
0.00893467 	0.00273738 	0.00253337 	3.43792e-25
0.00938141 	0.00323201 	0.00288775 	3.19997e-25
0.00982814 	0.00372665 	0.00324213 	2.96203e-25
0.0102749 	0.00424474 	0.00356786 	4.61262e-25
0.0107216 	0.00477768 	0.00387546 	7.458e-25
0.0111683 	0.00531077 	0.00417327 	9.75295e-25
0.0116151 	0.00584492 	0.00440254 	8.1948e-25
0.0120618 	0.00637907 	0.00463181 	6.63666e-25
0.0125085 	0.00689516 	0.004801 	2.64811e-25
0.0129553 	0.00740099 	0.00493604 	-2.72243e-25
0.013402 	0.00789972 	0.0050567 	-7.65344e-25
0.0138487 	0.00835818 	0.00509589 	-1.00938e-24
0.0142955 	0.00881664 	0.00513507 	-1.25341e-24
0.0147422 	0.00923756 	0.0051163 	-1.1606e-24
0.0151889 	0.00963937 	0.005068 	-8.96197e-25
0.0156357 	0.0100309 	0.00500678 	-5.66856e-25
0.0160824 	0.010374 	0.00488469 	6.86117e-26
0.0165291 	0.0107171 	0.00476259 	7.04079e-25
0.0169759 	0.0110214 	0.00460027 	8.94489e-25
0.0174226 	0.0113081 	0.00441966 	8.826e-25
0.0178693 	0.0115843 	0.00423027 	8.0289e-25
0.0183161 	0.0118189 	0.0040057 	4.519e-25
0.0187628 	0.0120535 	0.00378114 	1.0091e-25
0.0192095 	0.0122543 	0.00353428 	0
0.0196563 	0.0124414 	0.00327842 	0
0.020103 	0.0126188 	0.00301788 	-8.92863e-26
0.0205497 	0.0127628 	0.00274121 	-4.86115e-25
0.0209965 	0.0129067 	0.00246453 	-8.82943e-25
0.0214432 	0.0130213 	0.00217873 	-1.42338e-24
0.0218899 	0.0131253 	0.00188968 	-2.01493e-24
0.0223367 	0.01322 	0.00159924 	-2.42786e-24
0.0227834 	0.0132865 	0.00130463 	-2.30492e-24
0.0232302 	0.0133531 	0.00101003 	-2.18199e-24
0.0236769 	0.013392 	0.000715467 	-1.44897e-24
0.0241236 	0.0134224 	0.000420923 	-5.25939e-25
0.0245704 	0.0134429 	0.000127743 	3.28409e-25
0.0250171 	0.0134375 	-0.000161844 	1.00167e-24
0.0254638 	0.0134321 	-0.000451431 	1.67494e-24
0.0259106 	0.0133982 	-0.000733474 	1.7125e-24
0.0263573 	0.0133566 	-0.00101348 	1.57853e-24
0.026804 	0.013304 	-0.00128921 	1.42156e-24
0.0272508 	0.0132254 	-0.00155497 	1.21089e-24
0.0276975 	0.0131468 	-0.00182073 	1.00023e-24
0.0281442 	0.0130372 	-0.00207094 	1.01855e-24
0.028591 	0.0129205 	-0.00231756 	1.0897e-24
0.0290377 	0.0127909 	-0.00255626 	1.05629e-24
0.0294844 	0.0126346 	-0.00277851 	8.05721e-25
0.0299312 	0.0124784 	-0.00300076 	5.55153e-25
0.0303779 	0.0122881 	-0.00319787 	-2.08916e-26
0.0308246 	0.0120912 	-0.00339009 	-6.60088e-25
0.0312714 	0.0118797 	-0.00356965 	-1.05392e-24
0.0317181 	0.0116412 	-0.00372569 	-9.92058e-25
0.0321648 	0.0114027 	-0.00388173 	-9.302e-25
0.0326116 	0.0111277 	-0.00400084 	-3.38603e-25
0.0330583 	0.0108469 	-0.00411405 	3.37446e-25
0.033505 	0.0105502 	-0.00420859 	7.99608e-25
0.0339518 	0.0102269 	-0.00427201 	9.05293e-25
0.0343985 	0.00990365 	-0.00433542 	1.01098e-24
0.0348452 	0.00954344 	-0.00434877 	6.71341e-25
0.035292 	0.00917854 	-0.00435578 	2.75254e-25
0.0357387 	0.00879829 	-0.00433829 	3.52273e-26
0.0361854 	0.00839502 	-0.00428407 	2.92922e-26
0.0366322 	0.00799175 	-0.00422985 	2.33571e-26
0.0370789 	0.00756028 	-0.00411897 	2.56637e-25
0.0375256 	0.0071261 	-0.00400266 	5.12855e-25
0.0379724 	0.00668437 	-0.00386221 	6.06587e-25
0.0384191 	0.00623245 	-0.00368909 	4.80485e-25
0.0388658 	0.00578052 	-0.00351597 	3.54383e-25
0.0393126 	0.00532956 	-0.00330132 	7.92225e-26
0.0397593 	0.00487867 	-0.00308389 	-2.05875e-25
0.040206 	0.00443814 	-0.00285497 	-3.67353e-25
0.0406528 	0.00401026 	-0.00261201 	-3.77741e-25
0.0410995 	0.00358238 	-0.00236905 	-3.88128e-25
0.0415462 	0.00319678 	-0.00212314 	-2.81772e-25
0.041993 	0.00281282 	-0.00187712 	-1.70868e-25
0.0424397 	0.00245722 	-0.00164103 	-9.83886e-26
0.0428864 	0.00213294 	-0.00141593 	-6.8379e-26
0.0433332 	0.00180866 	-0.00119082 	-3.83694e-26
0.0437799 	0.00155181 	-0.00101135 	-2.95562e-26
0.0442266 	0.00129581 	-0.000832467 	-2.10114e-26
0.0446734 	0.00107467 	-0.000689199 	-1.33743e-26
0.0451201 	0.000888411 	-0.000581551 	-6.64511e-27
0.0455668 	0.000702941 	-0.000474941 	1.62934e-28
0.0460136 	0.000580063 	-0.000450334 	1.31977e-26
0.0464603 	0.000457186 	-0.000425728 	2.62324e-26
0.046907 	0.000358952 	-0.000430067 	5.01047e-26
0.0473538 	0.000283013 	-0.000460596 	8.37825e-26
0.0478005 	0.000207844 	-0.000490022 	1.1602e-25
0.0482472 	0.00015243 	-0.000491123 	1.11284e-25
0.048694 	9.70174e-05 	-0.000492225 	1.06549e-25
0.0491407 	5.68742e-05 	-0.000432481 	8.589e-26
0.0495874 	2.92245e-05 	-0.000322955 	5.22025e-26
0.0500342 	3.22833e-06 	-0.000214741 	2.01023e-26
0.0504809 	2.0337e-06 	-0.00012621 	1.18125e-26
0.0509276 	8.39069e-07 	-3.7679e-05 	3.52265e-27
0.0513744 	3.57313e-07 	-5.22643e-08 	5.06908e-30
0.0518211 	4.02463e-07 	-5.04891e-08 	1.48137e-29
0.0522678 	4.43472e-07 	-4.90424e-08 	2.28717e-29
0.0527146 	4.41286e-07 	-5.10215e-08 	1.33419e-29
0.0531613 	4.391e-07 	-5.30006e-08 	3.81196e-30
0.053608 	4.36361e-07 	-5.4727e-08 	0
0.0540548 	4.33254e-07 	-5.6285e-08 	0
0.0545015 	4.30079e-07 	-5.78057e-08 	0
0.0549482 	4.26366e-07 	-5.90322e-08 	0
0.055395 	4.22653e-07 	-6.02586e-08 	0
0.0558417 	4.18698e-07 	-6.13193e-08 	-3.01882e-29
0.0562884 	4.14599e-07 	-6.22805e-08 	-7.84892e-29
0.0567352 	4.10466e-07 	-6.32127e-08 	-1.28429e-28
0.0571819 	4.06127e-07 	-6.39627e-08 	-1.88645e-28
0.0576286 	4.01789e-07 	-6.47128e-08 	-2.48862e-28
0.0580754 	3.97358e-07 	-6.53559e-08 	-2.59253e-28
0.0585221 	3.92877e-07 	-6.59416e-08 	-2.42814e-28
0.0589688 	3.88383e-07 	-6.65073e-08 	-2.06227e-28
0.0594156 	3.83823e-07 	-6.69702e-08 	-6.58014e-29
0.0598623 	3.79262e-07 	-6.74332e-08 	7.46243e-29
0.060309 	3.74673e-07 	-6.78387e-08 	1.7152e-28
0.0607558 	3.70071e-07 	-6.82164e-08 	2.47456e-28
0.0612025 	3.65464e-07 	-6.85845e-08 	2.74465e-28
0.0616492 	3.6084e-07 	-6.89104e-08 	8.94565e-29
0.062096 	3.56216e-07 	-6.92363e-08 	-9.55524e-29
0.0625427 	3.51584e-07 	-6.95464e-08 	-2.6692e-28
0.0629894 	3.46948e-07 	-6.98497e-08 	-4.3244e-28
0.0634362 	3.4231e-07 	-7.01537e-08 	-5.68926e-28
0.0638829 	3.37662e-07 	-7.04601e-08 	-5.97808e-28
0.0643296 	3.33015e-07 	-7.07665e-08 	-6.26691e-28
0.0647764 	3.28356e-07 	-7.10913e-08 	-7.51647e-28
0.0652231 	3.23693e-07 	-7.1423e-08 	-9.13045e-28
0.0656698 	3.19024e-07 	-7.17654e-08 	-1.05954e-27
0.0661166 	3.14335e-07 	-7.21418e-08 	-1.15817e-27
0.0665633 	3.09647e-07 	-7.25182e-08 	-1.2568e-27
0.0670101 	3.04931e-07 	-7.29409e-08 	-9.42054e-28
0.0674568 	3.00206e-07 	-7.33791e-08 	-4.89519e-28
0.0679035 	2.95468e-07 	-7.38374e-08 	-4.5988e-29
0.0683503 	2.90692e-07 	-7.43524e-08 	3.72248e-28
0.068797 	2.85917e-07 	-7.48674e-08 	7.90484e-28
0.0692437 	2.8109e-07 	-7.54527e-08 	8.98933e-28
0.0696905 	2.76248e-07 	-7.60585e-08 	9.17445e-28
0.0701372 	2.71382e-07 	-7.66942e-08 	9.90445e-28
0.0705839 	2.66457e-07 	-7.74039e-08 	1.19848e-27
0.0710307 	2.61532e-07 	-7.81135e-08 	1.40652e-27
0.0714774 	2.56525e-07 	-7.89167e-08 	1.29367e-27
0.0719241 	2.51499e-07 	-7.97433e-08 	1.10061e-27
0.0723709 	2.46436e-07 	-8.06105e-08 	7.40478e-28
0.0728176 	2.41289e-07 	-8.15672e-08 	1.27841e-29
0.0732643 	2.36143e-07 	-8.25238e-08 	-7.1491e-28
0.0737111 	2.30882e-07 	-8.35995e-08 	-1.21956e-27
0.0741578 	2.25596e-07 	-8.47005e-08 	-1.6769e-27
0.0746045 	2.20256e-07 	-8.58555e-08 	-2.11309e-27
0.0750513 	2.14811e-07 	-8.71164e-08 	-2.50777e-27
0.075498 	2.09365e-07 	-8.83773e-08 	-2.90246e-27
0.0759447 	2.03765e-07 	-8.97894e-08 	-2.78649e-27
0.0763915 	1.98138e-07 	-9.12282e-08 	-2.5804e-27
0.0768382 	1.92438e-07 	-9.2739e-08 	-2.0448e-27
0.0772849 	1.86609e-07 	-9.43764e-08 	-9.29712e-28
0.0777317 	1.8078e-07 	-9.60138e-08 	1.85376e-28
0.0781784 	1.74754e-07 	-9.78466e-08 	1.01847e-27
0.0786251 	1.68701e-07 	-9.97073e-08 	1.81128e-27
0.0790719 	1.62552e-07 	-1.01666e-07 	2.3613e-27
0.0795186 	1.56253e-07 	-1.0378e-07 	2.52757e-27
0.0799653 	1.49955e-07 	-1.05894e-07 	2.69383e-27
0.0804121 	1.43417e-07 	-1.08267e-07 	2.47713e-27
0.0808588 	1.36854e-07 	-1.1067e-07 	2.21787e-27
0.0813055 	1.30174e-07 	-1.1321e-07 	1.71752e-27
0.0817523 	1.23329e-07 	-1.15945e-07 	8.73795e-28
0.082199 	1.16484e-07 	-1.1868e-07 	3.0071e-29
0.0826457 	1.09369e-07 	-1.2177e-07 	-7.04942e-28
0.0830925 	1.02232e-07 	-1.2489e-07 	-1.43114e-27
0.0835392 	9.49661e-08 	-1.28205e-07 	-1.85418e-27
0.0839859 	8.75354e-08 	-1.3177e-07 	-1.88746e-27
0.0844327 	8.01046e-08 	-1.35336e-07 	-1.92073e-27
0.0848794 	7.24077e-08 	-1.39393e-07 	-1.21275e-27
0.0853261 	6.46967e-08 	-1.43476e-07 	-4.65753e-28
0.0857729 	5.6872e-08 	-1.47834e-07 	-5.34972e-29
0.0862196 	4.8915e-08 	-1.5251e-07 	-3.02651e-29
0.0866663 	4.0958e-08 	-1.57186e-07 	-7.03304e-30
0.0871131 	3.28198e-08 	-1.62509e-07 	-9.01904e-28
0.0875598 	2.46769e-08 	-1.67848e-07 	-1.82032e-27
0.0880065 	1.64854e-08 	-1.37153e-07 	-1.84201e-27
0.0884533 	8.24271e-09 	-6.85767e-08 	-9.21006e-28
0.0889 	2.45435e-22 	-4.69389e-21 	-7.50894e-41
