# f_l  POINT_DATA 1244
#  x  y  z  f_l
0.070172 0.001665 0 0.5
0.0701815 0.00204744 -0.00172269 0.5
0.0701815 0.00204744 0.00172269 0.5
0.070214 0.00131504 -0.00157637 0.5
0.070214 0.00131504 0.00157637 0.5
0.0701934 0.0024044 -0.00166937 0.5
0.0701934 0.0024044 0.00166937 0.5
0.0701815 0.00204744 0.0025 0.5
0.0701815 0.00204744 -0.0025 0.5
0.0702027 0.002775 1.74423e-19 0.5
0.070214 0.00131504 0.0025 0.5
0.070214 0.00131504 -0.0025 0.5
0.0701934 0.0024044 -0.0025 0.5
0.0701934 0.0024044 0.0025 0.5
0.0702086 0.00313042 -0.00160101 0.5
0.0702086 0.00313042 0.00160101 0.5
0.070225 0.00222 0.0025 0.5
0.070225 0.00222 -0.0025 0.5
0.0702086 0.00313042 0.0025 0.5
0.0702086 0.00313042 -0.0025 0.5
0.0702177 0.00353868 -0.00155999 0.5
0.0702177 0.00353868 0.00155999 0.5
0.0702234 0.003885 1.26661e-19 0.5
0.0702878 0.00111 0.0025 0.5
0.0702878 0.00111 -0.0025 0.5
0.0702177 0.00353868 0.0025 0.5
0.0702177 0.00353868 -0.0025 0.5
0.0702291 0.00421987 0.00150842 0.5
0.0702291 0.00421987 -0.00150842 0.5
0.0702508 0.00333 0.0025 0.5
0.0702508 0.00333 -0.0025 0.5
0.0703304 0.000788701 0.0025 0.5
0.0703304 0.000788701 -0.0025 0.5
0.0702291 0.00421987 0.0025 0.5
0.0702291 0.00421987 -0.0025 0.5
0.0702398 0.00467081 -0.00146031 0.5
0.0702398 0.00467081 0.00146031 0.5
0.0702454 0.004995 2.60587e-19 0.5
0.0702398 0.00467081 0.0025 0.5
0.0702398 0.00467081 -0.0025 0.5
0.0702711 0.00444 0.0025 0.5
0.0702711 0.00444 -0.0025 0.5
0.0702518 0.0053072 -0.00140632 0.5
0.0702518 0.0053072 0.00140632 0.5
0.0704797 0.000544795 2.27233e-19 0.5
0.0702518 0.0053072 0.0025 0.5
0.0702518 0.0053072 -0.0025 0.5
0.0702662 0.00580711 -0.00134184 0.5
0.0702662 0.00580711 0.00134184 0.5
0.0704906 0.000481267 0.0025 0.5
0.0704906 0.000481267 -0.0025 0.5
0.0702724 0.006105 -1.68646e-20 0.5
0.0702662 0.00580711 0.0025 0.5
0.0702662 0.00580711 -0.0025 0.5
0.0702934 0.00555 0.0025 0.5
0.0702934 0.00555 -0.0025 0.5
0.0702795 0.00638953 -0.00128167 0.5
0.0702795 0.00638953 0.00128167 0.5
0.0702795 0.00638953 0.0025 0.5
0.0702795 0.00638953 -0.0025 0.5
0.0703064 0.00721017 -2.62474e-20 0.5
0.0703198 0.00666 0.0025 0.5
0.0703198 0.00666 -0.0025 0.5
0.0706382 0.000481267 0.0025 0.5
0.0706382 0.000481267 -0.0025 0.5
0.0702993 0.00695021 -0.0025 0.5
0.0702993 0.00695021 0.0025 0.5
0.0703138 0.0074653 -0.0025 0.5
0.0703138 0.0074653 0.0025 0.5
0.070351 0.00777 -0.0025 0.5
0.070351 0.00777 0.0025 0.5
0.0703485 0.00832008 6.97572e-20 0.5
0.0703412 0.0081021 0.0025 0.5
0.0703412 0.0081021 -0.0025 0.5
0.070356 0.00853314 0.0025 0.5
0.070356 0.00853314 -0.0025 0.5
0.0703873 0.00888 0.0025 0.5
0.0703873 0.00888 -0.0025 0.5
0.0704009 0.0094305 4.23357e-21 0.5
0.0703942 0.00926502 0.0025 0.5
0.0703942 0.00926502 -0.0025 0.5
0.0704077 0.00959147 0.0025 0.5
0.0704077 0.00959147 -0.0025 0.5
0.07112 0.000681745 -0.0025 0.5
0.07112 0.000681745 0.0025 0.5
0.0704289 0.00999 0.0025 0.5
0.0704289 0.00999 -0.0025 0.5
0.0704659 0.0105417 8.20348e-20 0.5
0.070461 0.0104417 0.0025 0.5
0.070461 0.0104417 -0.0025 0.5
0.0704708 0.0106385 0.0025 0.5
0.0704708 0.0106385 -0.0025 0.5
0.0704758 0.0111 0.0025 0.5
0.0704758 0.0111 -0.0025 0.5
0.0713978 0.0002775 0.0025 0.5
0.0713978 0.0002775 -0.0025 0.5
0.0705482 0.0116699 -6.54761e-19 0.5
0.0705459 0.0116365 0.0025 0.5
0.0705459 0.0116365 -0.0025 0.5
0.0705479 0.0116714 0.0025 0.5
0.0705479 0.0116714 -0.0025 0.5
0.0705278 0.01221 0.0025 0.5
0.0705278 0.01221 -0.0025 0.5
0.0716756 0.0002775 9.36031e-20 0.5
0.0706271 0.0127665 7.6151e-19 0.5
0.0706248 0.0127046 -0.0025 0.5
0.0706248 0.0127046 0.0025 0.5
0.0706294 0.01283 -0.0025 0.5
0.0706294 0.01283 0.0025 0.5
0.0705844 0.01332 0.0025 0.5
0.0705844 0.01332 -0.0025 0.5
0.0719534 0.0002775 0.0025 0.5
0.0719534 0.0002775 -0.0025 0.5
0.0707027 0.0138785 -5.66754e-19 0.5
0.0706976 0.0137419 -0.0025 0.5
0.0706976 0.0137419 0.0025 0.5
0.0707081 0.0140186 -0.0025 0.5
0.0707081 0.0140186 0.0025 0.5
0.0706441 0.01443 0.0025 0.5
0.0706441 0.01443 -0.0025 0.5
0.0722313 0.000555 -0.0025 0.5
0.0722313 0.000555 0.0025 0.5
0.0707664 0.0147832 0.0025 0.5
0.0707664 0.0147832 -0.0025 0.5
0.070774 0.0149902 6.1173e-19 0.5
0.0707036 0.01554 0.0025 0.5
0.0707036 0.01554 -0.0025 0.5
0.0707819 0.0152022 -0.0025 0.5
0.0707819 0.0152022 0.0025 0.5
0.0725091 0.0002775 0.0025 0.5
0.0725091 0.0002775 -0.0025 0.5
0.07083 0.0159201 3.77566e-19 0.5
0.070827 0.0158327 0.0025 0.5
0.070827 0.0158327 -0.0025 0.5
0.0708458 0.0163761 -0.00126631 0.5
0.0708458 0.0163761 0.00126631 0.5
0.0707611 0.01665 0.0025 0.5
0.0707611 0.01665 -0.0025 0.5
0.0708458 0.0163761 0.0025 0.5
0.0708458 0.0163761 -0.0025 0.5
0.0727869 0.0002775 1.145e-19 0.5
0.0708802 0.0168895 0.00142124 0.5
0.0708802 0.0168895 -0.00142124 0.5
0.0708802 0.0168895 0.0025 0.5
0.0708802 0.0168895 -0.0025 0.5
0.0708905 0.017205 1.8188e-21 0.5
0.0708165 0.01776 0.0025 0.5
0.0708165 0.01776 -0.0025 0.5
0.0709013 0.0175415 -0.00151589 0.5
0.0709013 0.0175415 0.00151589 0.5
0.0709013 0.0175415 0.0025 0.5
0.0709013 0.0175415 -0.0025 0.5
0.0730647 0.0002775 0.0025 0.5
0.0730647 0.0002775 -0.0025 0.5
0.0709269 0.0179529 0.00163097 0.5
0.0709269 0.0179529 -0.00163097 0.5
0.0709269 0.0179529 0.0025 0.5
0.0709269 0.0179529 -0.0025 0.5
0.0709378 0.018315 2.6917e-19 0.5
0.0708677 0.01887 0.0025 0.5
0.0708677 0.01887 -0.0025 0.5
0.0733425 0.000555 -0.0025 0.5
0.0733425 0.000555 0.0025 0.5
0.0709484 0.0186986 -0.0017281 0.5
0.0709484 0.0186986 0.0017281 0.5
0.0709484 0.0186986 0.0025 0.5
0.0709484 0.0186986 -0.0025 0.5
0.070966 0.0190238 -0.00180728 0.5
0.070966 0.0190238 0.00180728 0.5
0.070966 0.0190238 0.0025 0.5
0.070966 0.0190238 -0.0025 0.5
0.0709766 0.019425 -1.89738e-19 0.5
0.0736203 0.0002775 0.0025 0.5
0.0736203 0.0002775 -0.0025 0.5
0.0709409 0.01998 0.0025 0.5
0.0709409 0.01998 -0.0025 0.5
0.0710039 0.019864 -0.00197748 0.5
0.0710039 0.019864 0.00197748 0.5
0.0710039 0.019864 0.0025 0.5
0.0710039 0.019864 -0.0025 0.5
0.0710134 0.0200864 0.00202056 0.5
0.0710134 0.0200864 -0.00202056 0.5
0.0710134 0.0200864 0.0025 0.5
0.0710134 0.0200864 -0.0025 0.5
0.0738981 0.0002775 1.12679e-19 0.5
0.0710424 0.020535 8.82857e-21 0.5
0.0710497 0.02109 0.0025 0.5
0.0710497 0.02109 -0.0025 0.5
0.0710757 0.0210457 0.00230052 0.5
0.0710757 0.0210457 -0.00230052 0.5
0.0710757 0.0210457 0.0025 0.5
0.0710757 0.0210457 -0.0025 0.5
0.071079 0.021131 0.00231534 0.5
0.071079 0.021131 -0.00231534 0.5
0.071079 0.021131 0.0025 0.5
0.071079 0.021131 -0.0025 0.5
0.0741759 0.0002775 0.0025 0.5
0.0741759 0.0002775 -0.0025 0.5
0.0711143 0.021645 9.6082e-21 0.5
0.07112 0.021746 -0.0025 0.5
0.07112 0.021746 0.0025 0.5
0.0744538 0.000555 -0.0025 0.5
0.0744538 0.000555 0.0025 0.5
0.0711485 0.0221715 -0.00237174 0.5
0.0711485 0.0221715 0.00237174 0.5
0.0711485 0.0221715 0.0025 0.5
0.0711485 0.0221715 -0.0025 0.5
0.0711546 0.0222346 -0.00234411 0.5
0.0711546 0.0222346 0.00234411 0.5
0.0711546 0.0222346 0.0025 0.5
0.0711546 0.0222346 -0.0025 0.5
0.0711704 0.0222 0.0025 0.5
0.0711704 0.0222 -0.0025 0.5
0.0711905 0.022755 2.76127e-20 0.5
0.0747316 0.0002775 0.0025 0.5
0.0747316 0.0002775 -0.0025 0.5
0.071221 0.0232091 0.00204567 0.5
0.071221 0.0232091 -0.00204567 0.5
0.071221 0.0232091 0.0025 0.5
0.071221 0.0232091 -0.0025 0.5
0.0750094 0.0002775 1.14375e-19 0.5
0.071244 0.0234339 0.00194192 0.5
0.071244 0.0234339 -0.00194192 0.5
0.0712835 0.02331 -0.0025 0.5
0.0712835 0.02331 0.0025 0.5
0.071244 0.0234339 0.0025 0.5
0.071244 0.0234339 -0.0025 0.5
0.0712749 0.023865 -2.35794e-19 0.5
0.0713014 0.0242389 -0.00168402 0.5
0.0713014 0.0242389 0.00168402 0.5
0.0752872 0.0002775 0.0025 0.5
0.0752872 0.0002775 -0.0025 0.5
0.0713014 0.0242389 0.0025 0.5
0.0713014 0.0242389 -0.0025 0.5
0.0713889 0.02442 0.0025 0.5
0.0713889 0.02442 -0.0025 0.5
0.0713467 0.0246464 -0.00148004 0.5
0.0713467 0.0246464 0.00148004 0.5
0.0713467 0.0246464 0.0025 0.5
0.0713467 0.0246464 -0.0025 0.5
0.075565 0.000555 -0.0025 0.5
0.075565 0.000555 0.0025 0.5
0.0713717 0.024975 1.33266e-18 0.5
0.0713928 0.0252576 -0.00127275 0.5
0.0713928 0.0252576 0.00127275 0.5
0.0713928 0.0252576 -0.0025 0.5
0.0713928 0.0252576 0.0025 0.5
0.0758428 0.0002775 0.0025 0.5
0.0758428 0.0002775 -0.0025 0.5
0.0714881 0.02553 0.0025 0.5
0.0714881 0.02553 -0.0025 0.5
0.0714683 0.0258779 -0.0025 0.5
0.0714683 0.0258779 0.0025 0.5
0.0714842 0.0260748 -9.94009e-19 0.5
0.0761206 0.0002775 1.14623e-19 0.5
0.0714991 0.0262614 0.0025 0.5
0.0714991 0.0262614 -0.0025 0.5
0.0715816 0.02664 0.0025 0.5
0.0715816 0.02664 -0.0025 0.5
0.0763984 0.0002775 0.0025 0.5
0.0763984 0.0002775 -0.0025 0.5
0.0716149 0.0271344 0.0025 0.5
0.0716149 0.0271344 -0.0025 0.5
0.0716243 0.0272256 3.55675e-20 0.5
0.0716246 0.027246 0.0025 0.5
0.0716246 0.027246 -0.0025 0.5
0.0766763 0.000555 -0.0025 0.5
0.0766763 0.000555 0.0025 0.5
0.0716701 0.02775 0.0025 0.5
0.0716701 0.02775 -0.0025 0.5
0.0769541 0.0002775 0.0025 0.5
0.0769541 0.0002775 -0.0025 0.5
0.0717654 0.0283087 6.27834e-20 0.5
0.0717599 0.0282208 -0.0025 0.5
0.0717599 0.0282208 0.0025 0.5
0.0717712 0.0284004 0.0025 0.5
0.0717712 0.0284004 -0.0025 0.5
0.0772319 0.0002775 1.08196e-19 0.5
0.0717547 0.02886 -0.0025 0.5
0.0717547 0.02886 0.0025 0.5
0.0775097 0.0002775 0.0025 0.5
0.0775097 0.0002775 -0.0025 0.5
0.0718678 0.029223 0.0025 0.5
0.0718678 0.029223 -0.0025 0.5
0.0718788 0.0294224 -6.91076e-20 0.5
0.0718901 0.0296292 0.0025 0.5
0.0718901 0.0296292 -0.0025 0.5
0.0777875 0.000555 -0.0025 0.5
0.0777875 0.000555 0.0025 0.5
0.0718345 0.02997 0.0025 0.5
0.0718345 0.02997 -0.0025 0.5
0.0719538 0.0302472 0.00125145 0.5
0.0719538 0.0302472 -0.00125145 0.5
0.0719538 0.0302472 0.0025 0.5
0.0719538 0.0302472 -0.0025 0.5
0.0780653 0.0002775 0.0025 0.5
0.0780653 0.0002775 -0.0025 0.5
0.0719674 0.030525 4.32475e-19 0.5
0.0719801 0.0308291 -0.00137003 0.5
0.0719801 0.0308291 0.00137003 0.5
0.0783431 0.0002775 8.26565e-20 0.5
0.0719801 0.0308291 0.0025 0.5
0.0719801 0.0308291 -0.0025 0.5
0.0719047 0.03108 0.0025 0.5
0.0719047 0.03108 -0.0025 0.5
0.0720175 0.0312935 0.00153813 0.5
0.0720175 0.0312935 -0.00153813 0.5
0.0720175 0.0312935 0.0025 0.5
0.0720175 0.0312935 -0.0025 0.5
0.0786209 0.0002775 0.0025 0.5
0.0786209 0.0002775 -0.0025 0.5
0.0720307 0.031635 1.85049e-19 0.5
0.0720535 0.0320124 -0.00170001 0.5
0.0720535 0.0320124 0.00170001 0.5
0.0720535 0.0320124 0.0025 0.5
0.0720535 0.0320124 -0.0025 0.5
0.0719857 0.03219 0.0025 0.5
0.0719857 0.03219 -0.0025 0.5
0.0788988 0.000555 -0.0025 0.5
0.0788988 0.000555 0.0025 0.5
0.0720898 0.0323313 -0.00186335 0.5
0.0720898 0.0323313 0.00186335 0.5
0.0720898 0.0323313 0.0025 0.5
0.0720898 0.0323313 -0.0025 0.5
0.072112 0.032745 2.30156e-19 0.5
0.0791766 0.0002775 0.0025 0.5
0.0791766 0.0002775 -0.0025 0.5
0.0721305 0.0331993 -0.00204656 0.5
0.0721305 0.0331993 0.00204656 0.5
0.0720705 0.0333 0.0025 0.5
0.0720705 0.0333 -0.0025 0.5
0.0721305 0.0331993 0.0025 0.5
0.0721305 0.0331993 -0.0025 0.5
0.0794544 0.0002775 9.54222e-20 0.5
0.0721413 0.0333898 0.0020954 0.5
0.0721413 0.0333898 -0.0020954 0.5
0.0721413 0.0333898 0.0025 0.5
0.0721413 0.0333898 -0.0025 0.5
0.0721596 0.033855 1.33091e-19 0.5
0.0797322 0.0002775 0.0025 0.5
0.0797322 0.0002775 -0.0025 0.5
0.0721062 0.03441 0.0025 0.5
0.0721062 0.03441 -0.0025 0.5
0.0721587 0.0343375 0.00217342 0.5
0.0721587 0.0343375 -0.00217342 0.5
0.0721587 0.0343375 0.0025 0.5
0.0721587 0.0343375 -0.0025 0.5
0.0721613 0.0344799 0.00218514 0.5
0.0721613 0.0344799 -0.00218514 0.5
0.0721613 0.0344799 0.0025 0.5
0.0721613 0.0344799 -0.0025 0.5
0.08001 0.000555 -0.0025 0.5
0.08001 0.000555 0.0025 0.5
0.0721604 0.034965 2.11308e-19 0.5
0.0802878 0.0002775 0.0025 0.5
0.0802878 0.0002775 -0.0025 0.5
0.0721251 0.03552 0.0025 0.5
0.0721251 0.03552 -0.0025 0.5
0.0721702 0.035459 -0.00222519 0.5
0.0721702 0.035459 0.00222519 0.5
0.0721702 0.035459 -0.0025 0.5
0.0721702 0.035459 0.0025 0.5
0.0721747 0.0355765 0.0022457 0.5
0.0721747 0.0355765 -0.0022457 0.5
0.0721747 0.0355765 0.0025 0.5
0.0721747 0.0355765 -0.0025 0.5
0.0805656 0.0002775 1.15842e-19 0.5
0.0721842 0.036075 1.49067e-19 0.5
0.0808434 0.0002775 0.0025 0.5
0.0808434 0.0002775 -0.0025 0.5
0.072188 0.03663 0.0025 0.5
0.072188 0.03663 -0.0025 0.5
0.0722075 0.0366062 -0.00239298 0.5
0.0722075 0.0366062 0.00239298 0.5
0.0722075 0.0366062 0.0025 0.5
0.0722075 0.0366062 -0.0025 0.5
0.0722086 0.0366527 0.00239794 0.5
0.0722086 0.0366527 -0.00239794 0.5
0.0722086 0.0366527 0.0025 0.5
0.0722086 0.0366527 -0.0025 0.5
0.0811213 0.000555 -0.0025 0.5
0.0811213 0.000555 0.0025 0.5
0.0722329 0.037185 1.48922e-18 0.5
0.0722313 0.0372254 -0.0025 0.5
0.0722313 0.0372254 0.0025 0.5
0.0813991 0.0002775 0.0025 0.5
0.0813991 0.0002775 -0.0025 0.5
0.0722511 0.0377202 -0.0024108 0.5
0.0722511 0.0377202 0.0024108 0.5
0.0722511 0.0377202 -0.0025 0.5
0.0722511 0.0377202 0.0025 0.5
0.0722533 0.037762 -0.002401 0.5
0.0722533 0.037762 0.002401 0.5
0.0722533 0.037762 0.0025 0.5
0.0722533 0.037762 -0.0025 0.5
0.0722694 0.03774 -0.0025 0.5
0.0722694 0.03774 0.0025 0.5
0.0816769 0.0002775 9.5745e-20 0.5
0.072272 0.038295 -2.53168e-18 0.5
0.0819547 0.0002775 0.0025 0.5
0.0819547 0.0002775 -0.0025 0.5
0.0722858 0.0387955 -0.00225434 0.5
0.0722858 0.0387955 0.00225434 0.5
0.0722858 0.0387955 0.0025 0.5
0.0722858 0.0387955 -0.0025 0.5
0.0722907 0.0389093 0.00223268 0.5
0.0722907 0.0389093 -0.00223268 0.5
0.0722907 0.0389093 0.0025 0.5
0.0722907 0.0389093 -0.0025 0.5
0.0723306 0.03885 0.0025 0.5
0.0723306 0.03885 -0.0025 0.5
0.0822325 0.000555 -0.0025 0.5
0.0822325 0.000555 0.0025 0.5
0.0723047 0.039405 1.52662e-18 0.5
0.0825103 0.0002775 0.0025 0.5
0.0825103 0.0002775 -0.0025 0.5
0.0723151 0.0398762 -0.00212265 0.5
0.0723151 0.0398762 0.00212265 0.5
0.0723151 0.0398762 0.0025 0.5
0.0723151 0.0398762 -0.0025 0.5
0.0723209 0.0400496 -0.00209643 0.5
0.0723209 0.0400496 0.00209643 0.5
0.0723209 0.0400496 0.0025 0.5
0.0723209 0.0400496 -0.0025 0.5
0.0723773 0.03996 -0.0025 0.5
0.0723773 0.03996 0.0025 0.5
0.0827881 0.0002775 8.32524e-20 0.5
0.0723314 0.040515 8.62846e-20 0.5
0.0830659 0.0002775 0.0025 0.5
0.0830659 0.0002775 -0.0025 0.5
0.0723384 0.0409629 -0.00201772 0.5
0.0723384 0.0409629 0.00201772 0.5
0.0723384 0.0409629 0.0025 0.5
0.0723384 0.0409629 -0.0025 0.5
0.0723437 0.0411823 -0.00199399 0.5
0.0723437 0.0411823 0.00199399 0.5
0.0723437 0.0411823 0.0025 0.5
0.0723437 0.0411823 -0.0025 0.5
0.0724112 0.04107 0.0025 0.5
0.0724112 0.04107 -0.0025 0.5
0.0833437 0.000555 -0.0025 0.5
0.0833437 0.000555 0.0025 0.5
0.0723507 0.041625 -1.35581e-18 0.5
0.0836216 0.0002775 0.0025 0.5
0.0836216 0.0002775 -0.0025 0.5
0.0723548 0.0420566 -0.00194419 0.5
0.0723548 0.0420566 0.00194419 0.5
0.0723548 0.0420566 0.0025 0.5
0.0723548 0.0420566 -0.0025 0.5
0.0723584 0.042307 -0.0019279 0.5
0.0723584 0.042307 0.0019279 0.5
0.0723584 0.042307 0.0025 0.5
0.0723584 0.042307 -0.0025 0.5
0.072433 0.04218 0.0025 0.5
0.072433 0.04218 -0.0025 0.5
0.0838994 0.0002775 3.228e-22 0.5
0.0723624 0.042735 1.67607e-18 0.5
0.0841772 0.0002775 0.0025 0.5
0.0841772 0.0002775 -0.0025 0.5
0.0723646 0.0431568 -0.00189994 0.5
0.0723646 0.0431568 0.00189994 0.5
0.0723646 0.0431568 0.0025 0.5
0.0723646 0.0431568 -0.0025 0.5
0.0723668 0.0434254 -0.00188993 0.5
0.0723668 0.0434254 0.00188993 0.5
0.0724454 0.04329 0.0025 0.5
0.0724454 0.04329 -0.0025 0.5
0.0723668 0.0434254 0.0025 0.5
0.0723668 0.0434254 -0.0025 0.5
0.084455 0.000555 -0.0025 0.5
0.084455 0.000555 0.0025 0.5
0.072369 0.043845 -5.7661e-19 0.5
0.0847328 0.0002775 0.0025 0.5
0.0847328 0.0002775 -0.0025 0.5
0.0723689 0.0442625 -0.00188076 0.5
0.0723689 0.0442625 0.00188076 0.5
0.0723689 0.0442625 -0.0025 0.5
0.0723689 0.0442625 0.0025 0.5
0.0723687 0.0445373 -0.00188162 0.5
0.0723687 0.0445373 0.00188162 0.5
0.0724495 0.0444 0.0025 0.5
0.0724495 0.0444 -0.0025 0.5
0.0850106 0.0002775 0 0.5
0.0723687 0.0445373 0.0025 0.5
0.0723687 0.0445373 -0.0025 0.5
0.0723686 0.044955 9.77161e-19 0.5
0.0852884 0.0002775 0.0025 0.5
0.0852884 0.0002775 -0.0025 0.5
0.0723654 0.045376 -0.00189646 0.5
0.0723654 0.045376 0.00189646 0.5
0.0723654 0.045376 0.0025 0.5
0.0723654 0.045376 -0.0025 0.5
0.072362 0.0456406 -0.00191182 0.5
0.072362 0.0456406 0.00191182 0.5
0.0724427 0.04551 0.0025 0.5
0.0724427 0.04551 -0.0025 0.5
0.072362 0.0456406 0.0025 0.5
0.072362 0.0456406 -0.0025 0.5
0.0855663 0.000555 -0.0025 0.5
0.0855663 0.000555 0.0025 0.5
0.0723588 0.046065 -1.48402e-18 0.5
0.0858441 0.0002775 0.0025 0.5
0.0858441 0.0002775 -0.0025 0.5
0.0723531 0.0464983 -0.00195169 0.5
0.0723531 0.0464983 0.00195169 0.5
0.0723531 0.0464983 -0.0025 0.5
0.0723531 0.0464983 0.0025 0.5
0.0861219 0.0002775 0 0.5
0.0723479 0.0467365 0.0019751 0.5
0.0723479 0.0467365 -0.0019751 0.5
0.0723479 0.0467365 0.0025 0.5
0.0723479 0.0467365 -0.0025 0.5
0.0724249 0.04662 0.0025 0.5
0.0724249 0.04662 -0.0025 0.5
0.0723422 0.047175 1.74701e-18 0.5
0.0863997 0.0002775 0.0025 0.5
0.0863997 0.0002775 -0.0025 0.5
0.072334 0.0476273 -0.00203756 0.5
0.072334 0.0476273 0.00203756 0.5
0.072334 0.0476273 0.0025 0.5
0.072334 0.0476273 -0.0025 0.5
0.0866775 0.000555 -0.0025 0.5
0.0866775 0.000555 0.0025 0.5
0.0723282 0.0478269 -0.00206372 0.5
0.0723282 0.0478269 0.00206372 0.5
0.0723282 0.0478269 0.0025 0.5
0.0723282 0.0478269 -0.0025 0.5
0.0723974 0.04773 0.0025 0.5
0.0723974 0.04773 -0.0025 0.5
0.0723201 0.048285 1.58019e-19 0.5
0.0869553 0.0002775 0.0025 0.5
0.0869553 0.0002775 -0.0025 0.5
0.0872331 0.0002775 0 0.5
0.0723091 0.0487622 0.00214957 0.5
0.0723091 0.0487622 -0.00214957 0.5
0.0723091 0.0487622 0.0025 0.5
0.0723091 0.0487622 -0.0025 0.5
0.0723038 0.0489125 -0.00217345 0.5
0.0723038 0.0489125 0.00217345 0.5
0.0723038 0.0489125 0.0025 0.5
0.0723038 0.0489125 -0.0025 0.5
0.0723602 0.04884 0.0025 0.5
0.0723602 0.04884 -0.0025 0.5
0.0875109 0.0002775 0.0025 0.5
0.0875109 0.0002775 -0.0025 0.5
0.072293 0.049395 1.26299e-19 0.5
0.0877888 0.000555 -0.0025 0.5
0.0877888 0.000555 0.0025 0.5
0.0722792 0.0499021 0.00228406 0.5
0.0722792 0.0499021 -0.00228406 0.5
0.0722792 0.0499021 0.0025 0.5
0.0722792 0.0499021 -0.0025 0.5
0.0722755 0.0499942 0.00230103 0.5
0.0722755 0.0499942 -0.00230103 0.5
0.0722755 0.0499942 0.0025 0.5
0.0722755 0.0499942 -0.0025 0.5
0.0723132 0.04995 0.0025 0.5
0.0723132 0.04995 -0.0025 0.5
0.0880666 0.0002775 -0.00125 0.5
0.0880666 0.0002775 0.00125 0.5
0.0880666 0.0002775 0.0025 0.5
0.0880666 0.0002775 -0.0025 0.5
0.072262 0.050505 2.72544e-18 0.5
0.0883444 0.0002775 0 0.5
0.0883444 0.00111 0.0025 0.5
0.0883444 0.00111 -0.0025 0.5
0.0883444 0.00222 0.0025 0.5
0.0883444 0.00222 -0.0025 0.5
0.0883444 0.00333 0.0025 0.5
0.0883444 0.00333 -0.0025 0.5
0.0883444 0.00444 0.0025 0.5
0.0883444 0.00444 -0.0025 0.5
0.0722448 0.0510465 -0.00243922 0.5
0.0722448 0.0510465 0.00243922 0.5
0.0722448 0.0510465 0.0025 0.5
0.0722448 0.0510465 -0.0025 0.5
0.0722435 0.0510723 -0.00244469 0.5
0.0722435 0.0510723 0.00244469 0.5
0.0722435 0.0510723 -0.0025 0.5
0.0722435 0.0510723 0.0025 0.5
0.0722552 0.05106 0.0025 0.5
0.0722552 0.05106 -0.0025 0.5
0.0883444 0.00555 0.0025 0.5
0.0883444 0.00555 -0.0025 0.5
0.0886222 0.000555 0 0.5
0.0883444 0.00666 0.0025 0.5
0.0883444 0.00666 -0.0025 0.5
0.0886222 0.0002775 -0.00125 0.5
0.0886222 0.0002775 0.00125 0.5
0.0886222 0.0008325 0.00125 0.5
0.0886222 0.0008325 -0.00125 0.5
0.0886222 0.001665 0 0.5
0.0886222 0.0002775 0.0025 0.5
0.0886222 0.0002775 -0.0025 0.5
0.0886222 0.0008325 0.0025 0.5
0.0886222 0.0008325 -0.0025 0.5
0.0886222 0.002775 0 0.5
0.0886222 0.0013875 0.0025 0.5
0.0886222 0.0013875 -0.0025 0.5
0.0886222 0.0019425 0.0025 0.5
0.0886222 0.0019425 -0.0025 0.5
0.0886222 0.0024975 0.0025 0.5
0.0886222 0.0024975 -0.0025 0.5
0.0886222 0.003885 0 0.5
0.0886222 0.0030525 0.0025 0.5
0.0886222 0.0030525 -0.0025 0.5
0.0722313 0.0514388 -0.0025 0.5
0.0722313 0.0514388 0.0025 0.5
0.0883444 0.00777 0.0025 0.5
0.0883444 0.00777 -0.0025 0.5
0.0886222 0.0036075 0.0025 0.5
0.0886222 0.0036075 -0.0025 0.5
0.0886222 0.0041625 0.0025 0.5
0.0886222 0.0041625 -0.0025 0.5
0.0886222 0.004995 -1.81603e-19 0.5
0.0722268 0.051615 -2.9877e-18 0.5
0.0886222 0.0047175 0.0025 0.5
0.0886222 0.0047175 -0.0025 0.5
0.0886222 0.0052725 0.0025 0.5
0.0886222 0.0052725 -0.0025 0.5
0.0883444 0.00888 0.0025 0.5
0.0883444 0.00888 -0.0025 0.5
0.0886222 0.006105 -4.31797e-21 0.5
0.0886222 0.0058275 0.0025 0.5
0.0886222 0.0058275 -0.0025 0.5
0.0886222 0.0063825 0.0025 0.5
0.0886222 0.0063825 -0.0025 0.5
0.0886222 0.007215 3.76366e-21 0.5
0.0886222 0.0069375 -0.0025 0.5
0.0886222 0.0069375 0.0025 0.5
0.0883444 0.00999 0.0025 0.5
0.0883444 0.00999 -0.0025 0.5
0.0886222 0.0074925 -0.0025 0.5
0.0886222 0.0074925 0.0025 0.5
0.0886222 0.008325 1.10296e-21 0.5
0.0886222 0.0080475 -0.0025 0.5
0.0886222 0.0080475 0.0025 0.5
0.0886222 0.0086025 -0.0025 0.5
0.0886222 0.0086025 0.0025 0.5
0.0883444 0.0111 0.0025 0.5
0.0883444 0.0111 -0.0025 0.5
0.0721862 0.05217 0.0025 0.5
0.0721862 0.05217 -0.0025 0.5
0.0722076 0.0521464 0.00239376 0.5
0.0722076 0.0521464 -0.00239376 0.5
0.0722076 0.0521464 0.0025 0.5
0.0722076 0.0521464 -0.0025 0.5
0.0886222 0.009435 1.92878e-21 0.5
0.0722067 0.0521946 0.00238935 0.5
0.0722067 0.0521946 -0.00238935 0.5
0.0886222 0.0091575 0.0025 0.5
0.0886222 0.0091575 -0.0025 0.5
0.0722067 0.0521946 0.0025 0.5
0.0722067 0.0521946 -0.0025 0.5
0.0886222 0.0097125 0.0025 0.5
0.0886222 0.0097125 -0.0025 0.5
0.0883444 0.01221 0.0025 0.5
0.0883444 0.01221 -0.0025 0.5
0.0886222 0.010545 3.88923e-21 0.5
0.0886222 0.0102675 0.0025 0.5
0.0886222 0.0102675 -0.0025 0.5
0.0886222 0.0108225 0.0025 0.5
0.0886222 0.0108225 -0.0025 0.5
0.0883444 0.01332 0.0025 0.5
0.0883444 0.01332 -0.0025 0.5
0.0886222 0.0113775 0.0025 0.5
0.0886222 0.0113775 -0.0025 0.5
0.0886222 0.011655 2.78619e-21 0.5
0.0721881 0.052725 8.89536e-19 0.5
0.0886222 0.0119325 0.0025 0.5
0.0886222 0.0119325 -0.0025 0.5
0.0886222 0.0124875 -0.0025 0.5
0.0886222 0.0124875 0.0025 0.5
0.0886222 0.012765 1.81655e-19 0.5
0.0883444 0.01443 0.0025 0.5
0.0883444 0.01443 -0.0025 0.5
0.0886222 0.0130425 -0.0025 0.5
0.0886222 0.0130425 0.0025 0.5
0.0886222 0.0135975 0.0025 0.5
0.0886222 0.0135975 -0.0025 0.5
0.0886222 0.013875 0 0.5
0.0721808 0.0532296 -0.00227285 0.5
0.0721808 0.0532296 0.00227285 0.5
0.0721362 0.05328 0.0025 0.5
0.0721362 0.05328 -0.0025 0.5
0.0721808 0.0532296 0.0025 0.5
0.0721808 0.0532296 -0.0025 0.5
0.0883444 0.01554 0.0025 0.5
0.0883444 0.01554 -0.0025 0.5
0.0721777 0.0533335 0.00225912 0.5
0.0721777 0.0533335 -0.00225912 0.5
0.0721777 0.0533335 0.0025 0.5
0.0721777 0.0533335 -0.0025 0.5
0.0886222 0.0141525 0.0025 0.5
0.0886222 0.0141525 -0.0025 0.5
0.0886222 0.0147075 -0.0025 0.5
0.0886222 0.0147075 0.0025 0.5
0.0886222 0.014985 7.52748e-21 0.5
0.0883444 0.01665 0.0025 0.5
0.0883444 0.01665 -0.0025 0.5
0.0886222 0.0152625 -0.0025 0.5
0.0886222 0.0152625 0.0025 0.5
0.0721702 0.053835 2.78002e-18 0.5
0.0886222 0.0158175 0.0025 0.5
0.0886222 0.0158175 -0.0025 0.5
0.0886222 0.016095 0 0.5
0.0883444 0.01776 0.0025 0.5
0.0883444 0.01776 -0.0025 0.5
0.0886222 0.0163725 0.0025 0.5
0.0886222 0.0163725 -0.0025 0.5
0.0886222 0.0169275 0.0025 0.5
0.0886222 0.0169275 -0.0025 0.5
0.0886222 0.017205 0 0.5
0.0721617 0.0543205 -0.00218686 0.5
0.0721617 0.0543205 0.00218686 0.5
0.0721036 0.05439 0.0025 0.5
0.0721036 0.05439 -0.0025 0.5
0.0721617 0.0543205 0.0025 0.5
0.0721617 0.0543205 -0.0025 0.5
0.0886222 0.0174825 0.0025 0.5
0.0886222 0.0174825 -0.0025 0.5
0.0883444 0.01887 0.0025 0.5
0.0883444 0.01887 -0.0025 0.5
0.0721565 0.0544647 0.0021635 0.5
0.0721565 0.0544647 -0.0021635 0.5
0.0721565 0.0544647 0.0025 0.5
0.0721565 0.0544647 -0.0025 0.5
0.0886222 0.0180375 0.0025 0.5
0.0886222 0.0180375 -0.0025 0.5
0.0886222 0.018315 -4.24739e-19 0.5
0.0886222 0.0185925 0.0025 0.5
0.0886222 0.0185925 -0.0025 0.5
0.0883444 0.01998 0.0025 0.5
0.0883444 0.01998 -0.0025 0.5
0.0721477 0.054945 -3.58662e-18 0.5
0.0886222 0.0191475 0.0025 0.5
0.0886222 0.0191475 -0.0025 0.5
0.0886222 0.019425 2.54579e-19 0.5
0.0886222 0.0197025 0.0025 0.5
0.0886222 0.0197025 -0.0025 0.5
0.0883444 0.02109 0.0025 0.5
0.0883444 0.02109 -0.0025 0.5
0.0886222 0.0202575 0.0025 0.5
0.0886222 0.0202575 -0.0025 0.5
0.0886222 0.020535 -4.2863e-21 0.5
0.0721387 0.0554076 -0.0020837 0.5
0.0721387 0.0554076 0.0020837 0.5
0.0720673 0.0555 0.0025 0.5
0.0720673 0.0555 -0.0025 0.5
0.0721387 0.0554076 0.0025 0.5
0.0721387 0.0554076 -0.0025 0.5
0.0886222 0.0208125 0.0025 0.5
0.0886222 0.0208125 -0.0025 0.5
0.0721312 0.0556 -0.00204961 0.5
0.0721312 0.0556 0.00204961 0.5
0.0721312 0.0556 0.0025 0.5
0.0721312 0.0556 -0.0025 0.5
0.0883444 0.0222 0.0025 0.5
0.0883444 0.0222 -0.0025 0.5
0.0886222 0.0213675 0.0025 0.5
0.0886222 0.0213675 -0.0025 0.5
0.0886222 0.021645 -2.44648e-21 0.5
0.0886222 0.0219225 0.0025 0.5
0.0886222 0.0219225 -0.0025 0.5
0.072122 0.056055 2.34658e-18 0.5
0.0883444 0.02331 0.0025 0.5
0.0883444 0.02331 -0.0025 0.5
0.0886222 0.0224775 0.0025 0.5
0.0886222 0.0224775 -0.0025 0.5
0.0886222 0.022755 -2.49561e-19 0.5
0.0886222 0.0230325 0.0025 0.5
0.0886222 0.0230325 -0.0025 0.5
0.0721133 0.0564922 -0.00196933 0.5
0.0721133 0.0564922 0.00196933 0.5
0.0721133 0.0564922 0.0025 0.5
0.0721133 0.0564922 -0.0025 0.5
0.0720302 0.05661 -0.0025 0.5
0.0720302 0.05661 0.0025 0.5
0.0883444 0.02442 0.0025 0.5
0.0883444 0.02442 -0.0025 0.5
0.0886222 0.0235875 0.0025 0.5
0.0886222 0.0235875 -0.0025 0.5
0.0721033 0.0567378 0.00192446 0.5
0.0721033 0.0567378 -0.00192446 0.5
0.0886222 0.023865 4.33092e-19 0.5
0.0721033 0.0567378 0.0025 0.5
0.0721033 0.0567378 -0.0025 0.5
0.0886222 0.0241425 0.0025 0.5
0.0886222 0.0241425 -0.0025 0.5
0.0883444 0.02553 0.0025 0.5
0.0883444 0.02553 -0.0025 0.5
0.0720945 0.057165 -1.24237e-18 0.5
0.0886222 0.0246975 -0.0025 0.5
0.0886222 0.0246975 0.0025 0.5
0.0886222 0.024975 1.19177e-21 0.5
0.0886222 0.0252525 0.0025 0.5
0.0886222 0.0252525 -0.0025 0.5
0.0720866 0.0575755 -0.00184926 0.5
0.0720866 0.0575755 0.00184926 0.5
0.0720866 0.0575755 0.0025 0.5
0.0720866 0.0575755 -0.0025 0.5
0.0883444 0.02664 0.0025 0.5
0.0883444 0.02664 -0.0025 0.5
0.0719945 0.05772 0.0025 0.5
0.0719945 0.05772 -0.0025 0.5
0.0886222 0.0258075 0.0025 0.5
0.0886222 0.0258075 -0.0025 0.5
0.0886222 0.026085 9.22105e-21 0.5
0.0720749 0.0578762 0.00179645 0.5
0.0720749 0.0578762 -0.00179645 0.5
0.0720749 0.0578762 0.0025 0.5
0.0720749 0.0578762 -0.0025 0.5
0.0886222 0.0263625 0.0025 0.5
0.0886222 0.0263625 -0.0025 0.5
0.0883444 0.02775 0.0025 0.5
0.0883444 0.02775 -0.0025 0.5
0.0886222 0.0269175 0.0025 0.5
0.0886222 0.0269175 -0.0025 0.5
0.0720669 0.058275 1.45864e-18 0.5
0.0886222 0.027195 1.2044e-20 0.5
0.0886222 0.0274725 0.0025 0.5
0.0886222 0.0274725 -0.0025 0.5
0.0720603 0.0586592 -0.00173064 0.5
0.0720603 0.0586592 0.00173064 0.5
0.0720603 0.0586592 0.0025 0.5
0.0720603 0.0586592 -0.0025 0.5
0.0883444 0.02886 0.0025 0.5
0.0883444 0.02886 -0.0025 0.5
0.0886222 0.0280275 0.0025 0.5
0.0886222 0.0280275 -0.0025 0.5
0.0719618 0.05883 0.0025 0.5
0.0719618 0.05883 -0.0025 0.5
0.0886222 0.028305 -8.22717e-21 0.5
0.0720477 0.0590133 0.0016742 0.5
0.0720477 0.0590133 -0.0016742 0.5
0.0886222 0.0285825 0.0025 0.5
0.0886222 0.0285825 -0.0025 0.5
0.0720477 0.0590133 0.0025 0.5
0.0720477 0.0590133 -0.0025 0.5
0.0886222 0.0291375 0.0025 0.5
0.0886222 0.0291375 -0.0025 0.5
0.0883444 0.02997 0.0025 0.5
0.0883444 0.02997 -0.0025 0.5
0.072041 0.059385 6.53939e-19 0.5
0.0886222 0.029415 -6.85063e-19 0.5
0.0886222 0.0296925 0.0025 0.5
0.0886222 0.0296925 -0.0025 0.5
0.0720356 0.0597446 -0.00161969 0.5
0.0720356 0.0597446 0.00161969 0.5
0.0720356 0.0597446 -0.0025 0.5
0.0720356 0.0597446 0.0025 0.5
0.0719335 0.05994 -0.0025 0.5
0.0719335 0.05994 0.0025 0.5
0.0886222 0.0302475 0.0025 0.5
0.0886222 0.0302475 -0.0025 0.5
0.0883444 0.03108 0.0025 0.5
0.0883444 0.03108 -0.0025 0.5
0.0886222 0.030525 6.22217e-19 0.5
0.0720233 0.0601477 -0.00156423 0.5
0.0720233 0.0601477 0.00156423 0.5
0.0886222 0.0308025 0.0025 0.5
0.0886222 0.0308025 -0.0025 0.5
0.0720233 0.0601477 -0.0025 0.5
0.0720233 0.0601477 0.0025 0.5
0.0886222 0.0313575 0.0025 0.5
0.0886222 0.0313575 -0.0025 0.5
0.0720179 0.060495 -2.90331e-18 0.5
0.0883444 0.03219 0.0025 0.5
0.0883444 0.03219 -0.0025 0.5
0.0886222 0.031635 -3.88923e-21 0.5
0.0886222 0.0319125 0.0025 0.5
0.0886222 0.0319125 -0.0025 0.5
0.0720137 0.0608327 -0.00152125 0.5
0.0720137 0.0608327 0.00152125 0.5
0.0720137 0.0608327 -0.0025 0.5
0.0720137 0.0608327 0.0025 0.5
0.0719101 0.06105 0.0025 0.5
0.0719101 0.06105 -0.0025 0.5
0.0886222 0.0324675 0.0025 0.5
0.0886222 0.0324675 -0.0025 0.5
0.0883444 0.0333 0.0025 0.5
0.0883444 0.0333 -0.0025 0.5
0.0886222 0.032745 0 0.5
0.0720026 0.0612784 0.00147119 0.5
0.0720026 0.0612784 -0.00147119 0.5
0.0720026 0.0612784 0.0025 0.5
0.0720026 0.0612784 -0.0025 0.5
0.0886222 0.0330225 0.0025 0.5
0.0886222 0.0330225 -0.0025 0.5
0.0719985 0.061605 1.53379e-18 0.5
0.0886222 0.0335775 0.0025 0.5
0.0886222 0.0335775 -0.0025 0.5
0.0883444 0.03441 0.0025 0.5
0.0883444 0.03441 -0.0025 0.5
0.0886222 0.033855 0 0.5
0.0719955 0.0619245 -0.00143914 0.5
0.0719955 0.0619245 0.00143914 0.5
0.0719955 0.0619245 -0.0025 0.5
0.0719955 0.0619245 0.0025 0.5
0.0886222 0.0341325 0.0025 0.5
0.0886222 0.0341325 -0.0025 0.5
0.071892 0.06216 0.0025 0.5
0.071892 0.06216 -0.0025 0.5
0.0886222 0.0346875 0.0025 0.5
0.0886222 0.0346875 -0.0025 0.5
0.0883444 0.03552 0.0025 0.5
0.0883444 0.03552 -0.0025 0.5
0.0886222 0.034965 -3.39789e-22 0.5
0.0719864 0.0624046 0.00139825 0.5
0.0719864 0.0624046 -0.00139825 0.5
0.0719864 0.0624046 0.0025 0.5
0.0719864 0.0624046 -0.0025 0.5
0.0886222 0.0352425 0.0025 0.5
0.0886222 0.0352425 -0.0025 0.5
0.0719834 0.062715 1.92708e-19 0.5
0.0886222 0.0357975 0.0025 0.5
0.0886222 0.0357975 -0.0025 0.5
0.0883444 0.03663 0.0025 0.5
0.0883444 0.03663 -0.0025 0.5
0.0719813 0.0630203 -0.00137537 0.5
0.0719813 0.0630203 0.00137537 0.5
0.0886222 0.036075 1.76716e-21 0.5
0.0719813 0.0630203 -0.0025 0.5
0.0719813 0.0630203 0.0025 0.5
0.0718787 0.06327 0.0025 0.5
0.0718787 0.06327 -0.0025 0.5
0.0886222 0.0363525 0.0025 0.5
0.0886222 0.0363525 -0.0025 0.5
0.0719742 0.0635267 0.00134353 0.5
0.0719742 0.0635267 -0.00134353 0.5
0.0719742 0.0635267 0.0025 0.5
0.0719742 0.0635267 -0.0025 0.5
0.0886222 0.0369075 0.0025 0.5
0.0886222 0.0369075 -0.0025 0.5
0.0883444 0.03774 0.0025 0.5