# f_l  POINT_DATA 1941
#  x  y  z  f_l
0.000375 0.000375 0 0.5
0.0015 0.00025 5.72608e-20 0.5
0.00025 0.0015 0 0.5
0.0025 0.00025 -1.6386e-20 0.5
0.00025 0.0025 1.89735e-19 0.5
0.00025 0.00025 0.0025 0.5
0.00025 0.00025 -0.0025 0.5
0.00075 0.00025 0.0025 0.5
0.00025 0.00075 0.0025 0.5
0.00025 0.00075 -0.0025 0.5
0.00075 0.00025 -0.0025 0.5
0.001 0.0005 -0.0025 0.5
0.001 0.0005 0.0025 0.5
0.0005 0.001 0.0025 0.5
0.0005 0.001 -0.0025 0.5
0.00125 0.00025 0.0025 0.5
0.00025 0.00125 -0.0025 0.5
0.00125 0.00025 -0.0025 0.5
0.00025 0.00125 0.0025 0.5
0.00175 0.00025 0.0025 0.5
0.00025 0.00175 -0.0025 0.5
0.00175 0.00025 -0.0025 0.5
0.00025 0.00175 0.0025 0.5
0.002 0.0005 -0.0025 0.5
0.002 0.0005 0.0025 0.5
0.0005 0.002 0.0025 0.5
0.0005 0.002 -0.0025 0.5
0.00025 0.00225 0.0025 0.5
0.00025 0.00225 -0.0025 0.5
0.00225 0.00025 0.0025 0.5
0.00225 0.00025 -0.0025 0.5
0.0035 0.00025 -1.38704e-19 0.5
0.00025 0.0035 -1.89735e-19 0.5
0.00025 0.00275 0.0025 0.5
0.00025 0.00275 -0.0025 0.5
0.00275 0.00025 0.0025 0.5
0.00275 0.00025 -0.0025 0.5
0.0005 0.003 -0.0025 0.5
0.003 0.0005 -0.0025 0.5
0.003 0.0005 0.0025 0.5
0.0005 0.003 0.0025 0.5
0.00025 0.00325 0.0025 0.5
0.00325 0.00025 0.0025 0.5
0.00025 0.00325 -0.0025 0.5
0.00325 0.00025 -0.0025 0.5
0.0045 0.00025 -5.72243e-20 0.5
0.00025 0.0045 0 0.5
0.00025 0.00375 0.0025 0.5
0.00375 0.00025 0.0025 0.5
0.00025 0.00375 -0.0025 0.5
0.00375 0.00025 -0.0025 0.5
0.004 0.0005 -0.0025 0.5
0.004 0.0005 0.0025 0.5
0.0005 0.004 0.0025 0.5
0.0005 0.004 -0.0025 0.5
0.00025 0.00425 0.0025 0.5
0.00425 0.00025 0.0025 0.5
0.00025 0.00425 -0.0025 0.5
0.00425 0.00025 -0.0025 0.5
0.00475 0.00025 0.0025 0.5
0.00475 0.00025 -0.0025 0.5
0.00025 0.00475 0.0025 0.5
0.00025 0.00475 -0.0025 0.5
0.00025 0.0055 0 0.5
0.0055 0.00025 -2.36936e-21 0.5
0.005 0.0005 -0.0025 0.5
0.005 0.0005 0.0025 0.5
0.0005 0.005 0.0025 0.5
0.0005 0.005 -0.0025 0.5
0.00025 0.00525 -0.0025 0.5
0.00525 0.00025 0.0025 0.5
0.00025 0.00525 0.0025 0.5
0.00525 0.00025 -0.0025 0.5
0.00025 0.00575 -0.0025 0.5
0.00575 0.00025 0.0025 0.5
0.00575 0.00025 -0.0025 0.5
0.00025 0.00575 0.0025 0.5
0.0065 0.00025 5.2773e-20 0.5
0.00025 0.0065 0 0.5
0.0005 0.006 0.0025 0.5
0.0005 0.006 -0.0025 0.5
0.006 0.0005 -0.0025 0.5
0.006 0.0005 0.0025 0.5
0.00625 0.00025 0.0025 0.5
0.00025 0.00625 0.0025 0.5
0.00025 0.00625 -0.0025 0.5
0.00625 0.00025 -0.0025 0.5
0.00025 0.00675 0.0025 0.5
0.00675 0.00025 0.0025 0.5
0.00025 0.00675 -0.0025 0.5
0.00675 0.00025 -0.0025 0.5
0.007 0.0005 -0.0025 0.5
0.0005 0.007 0.0025 0.5
0.0005 0.007 -0.0025 0.5
0.007 0.0005 0.0025 0.5
0.0075 0.00025 4.99235e-20 0.5
0.00025 0.0075 -2.43945e-19 0.5
0.00025 0.00725 0.0025 0.5
0.00025 0.00725 -0.0025 0.5
0.00725 0.00025 -0.0025 0.5
0.00725 0.00025 0.0025 0.5
0.00025 0.00775 0.0025 0.5
0.00025 0.00775 -0.0025 0.5
0.00775 0.00025 -0.0025 0.5
0.00775 0.00025 0.0025 0.5
0.008 0.0005 -0.0025 0.5
0.008 0.0005 0.0025 0.5
0.0005 0.008 0.0025 0.5
0.0005 0.008 -0.0025 0.5
0.0085 0.00025 -2.36936e-21 0.5
0.00025 0.0085 2.43945e-19 0.5
0.00025 0.00825 0.0025 0.5
0.00825 0.00025 0.0025 0.5
0.00025 0.00825 -0.0025 0.5
0.00825 0.00025 -0.0025 0.5
0.00875 0.00025 0.0025 0.5
0.00025 0.00875 -0.0025 0.5
0.00025 0.00875 0.0025 0.5
0.00875 0.00025 -0.0025 0.5
0.009 0.0005 -0.0025 0.5
0.009 0.0005 0.0025 0.5
0.0005 0.009 0.0025 0.5
0.0005 0.009 -0.0025 0.5
0.0095 0.00025 -8.67352e-20 0.5
0.00025 0.0095 0 0.5
0.00025 0.00925 -0.0025 0.5
0.00025 0.00925 0.0025 0.5
0.00925 0.00025 0.0025 0.5
0.00925 0.00025 -0.0025 0.5
0.00025 0.00975 0.0025 0.5
0.00975 0.00025 0.0025 0.5
0.00025 0.00975 -0.0025 0.5
0.00975 0.00025 -0.0025 0.5
0.01 0.0005 -0.0025 0.5
0.01 0.0005 0.0025 0.5
0.0005 0.01 0.0025 0.5
0.0005 0.01 -0.0025 0.5
0.00025 0.0105 0 0.5
0.0105 0.00025 -7.98788e-20 0.5
0.01025 0.00025 0.0025 0.5
0.00025 0.01025 -0.0025 0.5
0.00025 0.01025 0.0025 0.5
0.01025 0.00025 -0.0025 0.5
0.01075 0.00025 0.0025 0.5
0.00025 0.01075 -0.0025 0.5
0.00025 0.01075 0.0025 0.5
0.01075 0.00025 -0.0025 0.5
0.011 0.0005 -0.0025 0.5
0.011 0.0005 0.0025 0.5
0.0005 0.011 0.0025 0.5
0.0005 0.011 -0.0025 0.5
0.0115 0.00025 0 0.5
0.00025 0.0115 0 0.5
0.00025 0.01125 0.0025 0.5
0.01125 0.00025 0.0025 0.5
0.00025 0.01125 -0.0025 0.5
0.01125 0.00025 -0.0025 0.5
0.00025 0.01175 0.0025 0.5
0.01175 0.00025 0.0025 0.5
0.00025 0.01175 -0.0025 0.5
0.01175 0.00025 -0.0025 0.5
0.0005 0.012 0.0025 0.5
0.0005 0.012 -0.0025 0.5
0.012 0.0005 -0.0025 0.5
0.012 0.0005 0.0025 0.5
0.0125 0.00025 -6.56015e-22 0.5
0.00025 0.0125 0 0.5
0.01225 0.00025 0.0025 0.5
0.00025 0.01225 -0.0025 0.5
0.01225 0.00025 -0.0025 0.5
0.00025 0.01225 0.0025 0.5
0.01275 0.00025 0.0025 0.5
0.00025 0.01275 -0.0025 0.5
0.01275 0.00025 -0.0025 0.5
0.00025 0.01275 0.0025 0.5
0.013 0.0005 -0.0025 0.5
0.013 0.0005 0.0025 0.5
0.0005 0.013 0.0025 0.5
0.0005 0.013 -0.0025 0.5
0.01325 0.00025 0.0025 0.5
0.01325 0.00025 -0.0025 0.5
0.00025 0.01325 0.0025 0.5
0.00025 0.01325 -0.0025 0.5
0.00025 0.0135 0 0.5
0.0135 0.00025 0 0.5
0.01375 0.00025 0.0025 0.5
0.01375 0.00025 -0.0025 0.5
0.00025 0.01375 0.0025 0.5
0.00025 0.01375 -0.0025 0.5
0.014 0.0005 -0.0025 0.5
0.014 0.0005 0.0025 0.5
0.0005 0.014 0.0025 0.5
0.0005 0.014 -0.0025 0.5
0.00025 0.01425 0.0025 0.5
0.01425 0.00025 0.0025 0.5
0.00025 0.01425 -0.0025 0.5
0.01425 0.00025 -0.0025 0.5
0.00025 0.0145 0 0.5
0.0145 0.00025 -8.63823e-20 0.5
0.00025 0.01475 0.0025 0.5
0.01475 0.00025 0.0025 0.5
0.00025 0.01475 -0.0025 0.5
0.01475 0.00025 -0.0025 0.5
0.015 0.0005 -0.0025 0.5
0.015 0.0005 0.0025 0.5
0.0005 0.015 0.0025 0.5
0.0005 0.015 -0.0025 0.5
0.00025 0.01525 0.0025 0.5
0.01525 0.00025 0.0025 0.5
0.00025 0.01525 -0.0025 0.5
0.01525 0.00025 -0.0025 0.5
0.0155 0.00025 -7.83693e-20 0.5
0.00025 0.0155 0 0.5
0.00025 0.01575 0.0025 0.5
0.01575 0.00025 0.0025 0.5
0.00025 0.01575 -0.0025 0.5
0.01575 0.00025 -0.0025 0.5
0.016 0.0005 -0.0025 0.5
0.016 0.0005 0.0025 0.5
0.0005 0.016 0.0025 0.5
0.0005 0.016 -0.0025 0.5
0.00025 0.01625 0.0025 0.5
0.01625 0.00025 0.0025 0.5
0.00025 0.01625 -0.0025 0.5
0.01625 0.00025 -0.0025 0.5
0.0165 0.00025 2.36936e-21 0.5
0.00025 0.0165 0 0.5
0.00025 0.01675 0.0025 0.5
0.01675 0.00025 0.0025 0.5
0.00025 0.01675 -0.0025 0.5
0.01675 0.00025 -0.0025 0.5
0.0005 0.017 0.0025 0.5
0.0005 0.017 -0.0025 0.5
0.017 0.000725537 -0.0025 0.5
0.017 0.000725537 0.0025 0.5
0.0172497 0.00066225 -2.28956e-20 0.5
0.00025 0.01725 -0.0025 0.5
0.00025 0.01725 0.0025 0.5
0.0173837 0.00149418 7.56567e-25 0.5
0.0172566 0.000743374 0.0025 0.5
0.0172566 0.000743374 -0.0025 0.5
0.00025 0.0175 0 0.5
0.0173783 0.001 0.0025 0.5
0.0173783 0.001 -0.0025 0.5
0.0173735 0.00137353 0.0025 0.5
0.0173735 0.00137353 -0.0025 0.5
0.017391 0.00160901 0.0025 0.5
0.017391 0.00160901 -0.0025 0.5
0.0174694 0.00252214 -2.44079e-20 0.5
0.0174594 0.002 0.0025 0.5
0.0174594 0.002 -0.0025 0.5
0.0174653 0.00246526 0.0025 0.5
0.0174653 0.00246526 -0.0025 0.5
0.0174687 0.00253133 0.0025 0.5
0.0174687 0.00253133 -0.0025 0.5
0.0175805 0.00350334 -2.46267e-19 0.5
0.00025 0.01775 -0.0025 0.5
0.00025 0.01775 0.0025 0.5
0.0175132 0.003 0.0025 0.5
0.0175132 0.003 -0.0025 0.5
0.0175757 0.00342426 0.0025 0.5
0.0175757 0.00342426 -0.0025 0.5
0.0175858 0.00358575 0.0025 0.5
0.0175858 0.00358575 -0.0025 0.5
0.0005 0.018 0.0025 0.5
0.0005 0.018 -0.0025 0.5
0.0175802 0.004 0.0025 0.5
0.0175802 0.004 -0.0025 0.5
0.0176904 0.00450806 -6.86572e-20 0.5
0.0176788 0.0043212 0.0025 0.5
0.0176788 0.0043212 -0.0025 0.5
0.00025 0.01825 0.0025 0.5
0.00025 0.01825 -0.0025 0.5
0.017703 0.004703 0.0025 0.5
0.017703 0.004703 -0.0025 0.5
0.00025 0.0185 -4.33681e-19 0.5
0.017658 0.005 0.0025 0.5
0.017658 0.005 -0.0025 0.5
0.0177691 0.00523091 0.00134543 0.5
0.0177691 0.00523091 -0.00134543 0.5
0.0177849 0.0055 3.41219e-20 0.5
0.0177691 0.00523091 0.0025 0.5
0.0177691 0.00523091 -0.0025 0.5
0.0178033 0.00580333 -0.00151665 0.5
0.0178033 0.00580333 0.00151665 0.5
0.0178033 0.00580333 0.0025 0.5
0.0178033 0.00580333 -0.0025 0.5
0.0177416 0.006 0.0025 0.5
0.0177416 0.006 -0.0025 0.5
0.00025 0.01875 0.0025 0.5
0.00025 0.01875 -0.0025 0.5
0.0178437 0.00615631 0.00171846 0.5
0.0178437 0.00615631 -0.00171846 0.5
0.0178623 0.0065 1.95627e-19 0.5
0.0178437 0.00615631 0.0025 0.5
0.0178437 0.00615631 -0.0025 0.5
0.0005 0.019 0.0025 0.5
0.0005 0.019 -0.0025 0.5
0.017881 0.00688095 -0.00190477 0.5
0.017881 0.00688095 0.00190477 0.5
0.0178225 0.007 0.0025 0.5
0.0178225 0.007 -0.0025 0.5
0.017881 0.00688095 0.0025 0.5
0.017881 0.00688095 -0.0025 0.5
0.0179013 0.0070987 0.00200652 0.5
0.0179013 0.0070987 -0.00200652 0.5
0.00025 0.01925 0.0025 0.5
0.00025 0.01925 -0.0025 0.5
0.0179013 0.0070987 0.0025 0.5
0.0179013 0.0070987 -0.0025 0.5
0.0179192 0.0075 -1.28771e-20 0.5
0.00025 0.0195 4.33681e-19 0.5
0.0179343 0.00793429 -0.00217144 0.5
0.0179343 0.00793429 0.00217144 0.5
0.0178908 0.008 0.0025 0.5
0.0178908 0.008 -0.0025 0.5
0.0179343 0.00793429 0.0025 0.5
0.0179343 0.00793429 -0.0025 0.5
0.0179425 0.00805745 0.00221274 0.5
0.0179425 0.00805745 -0.00221274 0.5
0.0179425 0.00805745 0.0025 0.5
0.0179425 0.00805745 -0.0025 0.5
0.0179569 0.0085 1.34003e-19 0.5
0.00025 0.01975 0.0025 0.5
0.00025 0.01975 -0.0025 0.5
0.0005 0.02 0.0025 0.5
0.0005 0.02 -0.0025 0.5
0.0179643 0.00896429 -0.00232146 0.5
0.0179643 0.00896429 0.00232146 0.5
0.0179353 0.009 0.0025 0.5
0.0179353 0.009 -0.0025 0.5
0.0179643 0.00896429 0.0025 0.5
0.0179643 0.00896429 -0.0025 0.5
0.0179665 0.00903354 0.0023323 0.5
0.0179665 0.00903354 -0.0023323 0.5
0.0179665 0.00903354 0.0025 0.5
0.0179665 0.00903354 -0.0025 0.5
0.0179737 0.0095 2.99905e-19 0.5
0.00025 0.02025 0.0025 0.5
0.00025 0.02025 -0.0025 0.5
0.00025 0.0205 0 0.5
0.0179716 0.00997162 -0.00235809 0.5
0.0179716 0.00997162 0.00235809 0.5
0.0179458 0.01 -0.0025 0.5
0.0179458 0.01 0.0025 0.5
0.0179716 0.00997162 0.0025 0.5
0.0179716 0.00997162 -0.0025 0.5
0.0179711 0.0100289 -0.0023556 0.5
0.0179711 0.0100289 0.0023556 0.5
0.0179711 0.0100289 -0.0025 0.5
0.0179711 0.0100289 0.0025 0.5
0.0179691 0.0105 -5.33577e-19 0.5
0.00025 0.02075 -0.0025 0.5
0.00025 0.02075 0.0025 0.5
0.0005 0.021 0.0025 0.5
0.0005 0.021 -0.0025 0.5
0.0179584 0.0109584 0.00229216 0.5
0.0179584 0.0109584 -0.00229216 0.5
0.0179199 0.011 0.0025 0.5
0.0179199 0.011 -0.0025 0.5
0.0179584 0.0109584 0.0025 0.5
0.0179584 0.0109584 -0.0025 0.5
0.0179543 0.0110457 0.00227142 0.5
0.0179543 0.0110457 -0.00227142 0.5
0.0179543 0.0110457 0.0025 0.5
0.0179543 0.0110457 -0.0025 0.5
0.0179432 0.0115 -6.79877e-21 0.5
0.00025 0.02125 0.0025 0.5
0.00025 0.02125 -0.0025 0.5
0.00025 0.0215 0 0.5
0.0179264 0.0119264 0.00213202 0.5
0.0179264 0.0119264 -0.00213202 0.5
0.0178626 0.012 0.0025 0.5
0.0178626 0.012 -0.0025 0.5
0.0179264 0.0119264 0.0025 0.5
0.0179264 0.0119264 -0.0025 0.5
0.0179132 0.0120868 -0.00206616 0.5
0.0179132 0.0120868 0.00206616 0.5
0.0179132 0.0120868 0.0025 0.5
0.0179132 0.0120868 -0.0025 0.5
0.0178955 0.0125 5.5625e-21 0.5
0.00025 0.02175 0.0025 0.5
0.00025 0.02175 -0.0025 0.5
0.017876 0.012876 -0.00187983 0.5
0.017876 0.012876 0.00187983 0.5
0.0005 0.022 0.0025 0.5
0.0005 0.022 -0.0025 0.5
0.0177841 0.013 0.0025 0.5
0.0177841 0.013 -0.0025 0.5
0.017876 0.012876 0.0025 0.5
0.017876 0.012876 -0.0025 0.5
0.0178454 0.0131546 0.00172684 0.5
0.0178454 0.0131546 -0.00172684 0.5
0.0178454 0.0131546 0.0025 0.5
0.0178454 0.0131546 -0.0025 0.5
0.0178253 0.0135 1.81797e-19 0.5
0.00025 0.02225 0.0025 0.5
0.00025 0.02225 -0.0025 0.5
0.00025 0.0225 0 0.5
0.0178068 0.0138068 -0.00153388 0.5
0.0178068 0.0138068 0.00153388 0.5
0.0178068 0.0138068 0.0025 0.5
0.0178068 0.0138068 -0.0025 0.5
0.0176963 0.014 0.0025 0.5
0.0176963 0.014 -0.0025 0.5
0.00025 0.02275 0.0025 0.5
0.00025 0.02275 -0.0025 0.5
0.0177498 0.0142502 -0.0025 0.5
0.0177498 0.0142502 0.0025 0.5
0.0177339 0.0144898 1.14908e-19 0.5
0.0005 0.023 0.0025 0.5
0.0005 0.023 -0.0025 0.5
0.0177192 0.0147192 -0.0025 0.5
0.0177192 0.0147192 0.0025 0.5
0.0176116 0.015 0.0025 0.5
0.0176116 0.015 -0.0025 0.5
0.00025 0.02325 0.0025 0.5
0.00025 0.02325 -0.0025 0.5
0.0176266 0.0154949 2.57969e-19 0.5
0.00025 0.0235 0 0.5
0.0176349 0.0153651 0.0025 0.5
0.0176349 0.0153651 -0.0025 0.5
0.0176196 0.0156196 0.0025 0.5
0.0176196 0.0156196 -0.0025 0.5
0.017544 0.016 0.0025 0.5
0.017544 0.016 -0.0025 0.5
0.00025 0.02375 0.0025 0.5
0.00025 0.02375 -0.0025 0.5
0.0175319 0.0164991 -3.93213e-20 0.5
0.0005 0.024 0.0025 0.5
0.0005 0.024 -0.0025 0.5
0.0175334 0.0164666 0.0025 0.5
0.0175334 0.0164666 -0.0025 0.5
0.0175307 0.0165307 0.0025 0.5
0.0175307 0.0165307 -0.0025 0.5
0.00025 0.02425 0.0025 0.5
0.00025 0.02425 -0.0025 0.5
0.00025 0.0245 0 0.5
0.0175016 0.017 0.0025 0.5
0.0175016 0.017 -0.0025 0.5
0.0174763 0.0174671 -8.69732e-21 0.5
0.017475 0.017475 -0.0025 0.5
0.017475 0.017475 0.0025 0.5
0.0174743 0.0175257 -0.0025 0.5
0.0174743 0.0175257 0.0025 0.5
0.00025 0.02475 0.0025 0.5
0.00025 0.02475 -0.0025 0.5
0.0005 0.025 0.0025 0.5
0.0005 0.025 -0.0025 0.5
0.0174859 0.018 0.0025 0.5
0.0174859 0.018 -0.0025 0.5
0.00025 0.02525 -0.0025 0.5
0.00025 0.02525 0.0025 0.5
0.0174737 0.018517 -6.98619e-19 0.5
0.00025 0.0255 0 0.5
0.017471 0.018471 0.0025 0.5
0.017471 0.018471 -0.0025 0.5
0.0174729 0.0185271 0.0025 0.5
0.0174729 0.0185271 -0.0025 0.5
0.00025 0.02575 -0.0025 0.5
0.00025 0.02575 0.0025 0.5
0.0175209 0.019 0.0025 0.5
0.0175209 0.019 -0.0025 0.5
0.0005 0.026 0.0025 0.5
0.0005 0.026 -0.0025 0.5
0.0176117 0.0195137 4.83177e-19 0.5
0.0175959 0.0194041 0.0025 0.5
0.0175959 0.0194041 -0.0025 0.5
0.00025 0.02625 0.0025 0.5
0.00025 0.02625 -0.0025 0.5
0.00025 0.0265 0 0.5
0.0176371 0.0196371 0.0025 0.5
0.0176371 0.0196371 -0.0025 0.5
0.0176991 0.02 0.0025 0.5
0.0176991 0.02 -0.0025 0.5
0.00025 0.02675 0.0025 0.5
0.00025 0.02675 -0.0025 0.5
0.0178471 0.0201529 0.00173538 0.5
0.0178471 0.0201529 -0.00173538 0.5
0.0178471 0.0201529 0.0025 0.5
0.0178471 0.0201529 -0.0025 0.5
0.0005 0.027 0.0025 0.5
0.0005 0.027 -0.0025 0.5
0.0179058 0.0205 3.48703e-19 0.5
0.00025 0.02725 0.0025 0.5
0.00025 0.02725 -0.0025 0.5
0.00025 0.0275 0 0.5
0.0179689 0.0209689 -0.00234447 0.5
0.0179689 0.0209689 0.00234447 0.5
0.0179689 0.0209689 -0.0025 0.5
0.0179689 0.0209689 0.0025 0.5
0.0179531 0.021 -0.0025 0.5
0.0179531 0.021 0.0025 0.5
0.0179783 0.0210217 -0.00239166 0.5
0.0179783 0.0210217 0.00239166 0.5
0.0179783 0.0210217 -0.0025 0.5
0.0179783 0.0210217 0.0025 0.5
0.00025 0.02775 0.0025 0.5
0.00025 0.02775 -0.0025 0.5
0.018 0.0211884 -0.0025 0.5
0.018 0.0211884 0.0025 0.5
0.0180365 0.0215 -5.59502e-19 0.5
0.0005 0.028 0.0025 0.5
0.0005 0.028 -0.0025 0.5
0.00025 0.02825 0.0025 0.5
0.00025 0.02825 -0.0025 0.5
0.0180921 0.0219079 0.00203947 0.5
0.0180921 0.0219079 -0.00203947 0.5
0.00025 0.0285 0 0.5
0.0180921 0.0219079 -0.0025 0.5
0.0180921 0.0219079 0.0025 0.5
0.0181951 0.022 0.0025 0.5
0.0181951 0.022 -0.0025 0.5
0.0181772 0.0221772 -0.0016141 0.5
0.0181772 0.0221772 0.0016141 0.5
0.0181772 0.0221772 0.0025 0.5
0.0181772 0.0221772 -0.0025 0.5
0.00025 0.02875 0.0025 0.5
0.00025 0.02875 -0.0025 0.5
0.0005 0.029 0.0025 0.5
0.0005 0.029 -0.0025 0.5
0.018333 0.0226757 -5.30588e-20 0.5
0.018315 0.022685 -0.0025 0.5
0.018315 0.022685 0.0025 0.5
0.00025 0.02925 0.0025 0.5
0.00025 0.02925 -0.0025 0.5
0.00025 0.0295 -1.6263e-19 0.5
0.0186053 0.023 0.0025 0.5
0.0186053 0.023 -0.0025 0.5
0.00025 0.02975 0.0025 0.5
0.00025 0.02975 -0.0025 0.5
0.0188315 0.0231685 0.00165767 0.5
0.0188315 0.0231685 -0.00165767 0.5
0.0188315 0.0231685 0.0025 0.5
0.0188315 0.0231685 -0.0025 0.5
0.0005 0.03 0.0025 0.5
0.0005 0.03 -0.0025 0.5
0.0189372 0.0235 9.3278e-21 0.5
0.00025 0.03025 0.0025 0.5
0.00025 0.03025 -0.0025 0.5
0.00025 0.0305 0 0.5
0.019 0.0239775 -0.0025 0.5
0.019 0.0239775 0.0025 0.5
0.0190045 0.0239955 -0.00247753 0.5
0.0190045 0.0239955 0.00247753 0.5
0.0190045 0.0239955 0.0025 0.5
0.0190045 0.0239955 -0.0025 0.5
0.0190096 0.024 0.0025 0.5
0.0190096 0.024 -0.0025 0.5
0.0190061 0.0240061 -0.00246975 0.5
0.0190061 0.0240061 0.00246975 0.5
0.0190061 0.0240061 0.0025 0.5
0.0190061 0.0240061 -0.0025 0.5
0.00025 0.03075 0.0025 0.5
0.00025 0.03075 -0.0025 0.5
0.0190746 0.0245 1.64673e-19 0.5
0.0005 0.031 0.0025 0.5
0.0005 0.031 -0.0025 0.5
0.00025 0.03125 0.0025 0.5
0.00025 0.03125 -0.0025 0.5
0.0191401 0.0248599 -0.00179955 0.5
0.0191401 0.0248599 0.00179955 0.5
0.0191401 0.0248599 0.0025 0.5
0.0191401 0.0248599 -0.0025 0.5
0.00025 0.0315 0 0.5
0.0192882 0.025 0.0025 0.5
0.0192882 0.025 -0.0025 0.5
0.00025 0.03175 0.0025 0.5
0.00025 0.03175 -0.0025 0.5
0.0193649 0.0253649 0.0025 0.5
0.0193649 0.0253649 -0.0025 0.5
0.0194124 0.0254965 3.46402e-20 0.5
0.0005 0.032 0.0025 0.5
0.0005 0.032 -0.0025 0.5
0.0194352 0.0255648 -0.0025 0.5
0.0194352 0.0255648 0.0025 0.5
0.00025 0.03225 0.0025 0.5
0.00025 0.03225 -0.0025 0.5
0.00025 0.0325 0 0.5
0.0197172 0.026 0.0025 0.5
0.0197172 0.026 -0.0025 0.5
0.00025 0.03275 0.0025 0.5
0.00025 0.03275 -0.0025 0.5
0.0198876 0.0261124 0.00193798 0.5
0.0198876 0.0261124 -0.00193798 0.5
0.0198876 0.0261124 0.0025 0.5
0.0198876 0.0261124 -0.0025 0.5
0.0005 0.033 0.0025 0.5
0.0005 0.033 -0.0025 0.5
0.0199938 0.0265 2.01198e-20 0.5
0.00025 0.03325 0.0025 0.5
0.00025 0.03325 -0.0025 0.5
0.00025 0.0335 0 0.5
0.02 0.0268499 0.0025 0.5
0.02 0.0268499 -0.0025 0.5
0.0200238 0.0269762 -0.00238103 0.5
0.0200238 0.0269762 0.00238103 0.5
0.0200238 0.0269762 0.0025 0.5
0.0200238 0.0269762 -0.0025 0.5
0.0200503 0.027 0.0025 0.5
0.0200503 0.027 -0.0025 0.5
0.0200303 0.0270303 -0.00234867 0.5
0.0200303 0.0270303 0.00234867 0.5
0.0200303 0.0270303 0.0025 0.5
0.0200303 0.0270303 -0.0025 0.5
0.00025 0.03375 0.0025 0.5
0.00025 0.03375 -0.0025 0.5
0.0200632 0.0275 -6.84738e-20 0.5
0.0005 0.034 0.0025 0.5
0.0005 0.034 -0.0025 0.5
0.00025 0.03425 0.0025 0.5
0.00025 0.03425 -0.0025 0.5
0.0201087 0.0278913 -0.00195665 0.5
0.0201087 0.0278913 0.00195665 0.5
0.0201087 0.0278913 0.0025 0.5
0.0201087 0.0278913 -0.0025 0.5
0.00025 0.0345 0 0.5
0.0202153 0.028 0.0025 0.5
0.0202153 0.028 -0.0025 0.5
0.0201861 0.0281861 -0.00156948 0.5
0.0201861 0.0281861 0.00156948 0.5
0.0201861 0.0281861 0.0025 0.5
0.0201861 0.0281861 -0.0025 0.5
0.00025 0.03475 0.0025 0.5
0.00025 0.03475 -0.0025 0.5
0.0202572 0.028654 -1.1155e-20 0.5
0.0005 0.035 0.0025 0.5
0.0005 0.035 -0.0025 0.5
0.020269 0.028731 0.0025 0.5
0.020269 0.028731 -0.0025 0.5
0.00025 0.03525 0.0025 0.5
0.00025 0.03525 -0.0025 0.5
0.00025 0.0355 0 0.5
0.0204228 0.029 0.0025 0.5
0.0204228 0.029 -0.0025 0.5
0.00025 0.03575 0.0025 0.5
0.00025 0.03575 -0.0025 0.5
0.0205477 0.0294908 -1.09474e-19 0.5
0.0205431 0.0294569 -0.0025 0.5
0.0205431 0.0294569 0.0025 0.5
0.0005 0.036 0.0025 0.5
0.0005 0.036 -0.0025 0.5
0.0205626 0.0295626 0.0025 0.5
0.0205626 0.0295626 -0.0025 0.5
0.00025 0.03625 0.0025 0.5
0.00025 0.03625 -0.0025 0.5
0.0206195 0.03 0.0025 0.5
0.0206195 0.03 -0.0025 0.5
0.00025 0.0365 0 0.5
0.0207634 0.0302366 0.00131719 0.5
0.0207634 0.0302366 -0.00131719 0.5
0.0207634 0.0302366 0.0025 0.5
0.0207634 0.0302366 -0.0025 0.5
0.00025 0.03675 0.0025 0.5
0.00025 0.03675 -0.0025 0.5
0.0207976 0.0305 3.08721e-19 0.5
0.0005 0.037 0.0025 0.5
0.0005 0.037 -0.0025 0.5
0.0208276 0.0308276 -0.00163798 0.5
0.0208276 0.0308276 0.00163798 0.5
0.0208276 0.0308276 0.0025 0.5
0.0208276 0.0308276 -0.0025 0.5
0.00025 0.03725 -0.0025 0.5
0.00025 0.03725 0.0025 0.5
0.020777 0.031 0.0025 0.5
0.020777 0.031 -0.0025 0.5
0.00025 0.0375 -6.77626e-19 0.5
0.0208771 0.0311229 0.00188569 0.5
0.0208771 0.0311229 -0.00188569 0.5
0.0208771 0.0311229 0.0025 0.5
0.0208771 0.0311229 -0.0025 0.5
0.0209063 0.0315 2.59801e-20 0.5
0.00025 0.03775 0.0025 0.5
0.00025 0.03775 -0.0025 0.5
0.0005 0.038 0.0025 0.5
0.0005 0.038 -0.0025 0.5
0.0209222 0.0319222 -0.00211093 0.5
0.0209222 0.0319222 0.00211093 0.5
0.0209222 0.0319222 0.0025 0.5
0.0209222 0.0319222 -0.0025 0.5
0.0208739 0.032 -0.0025 0.5
0.0208739 0.032 0.0025 0.5
0.00025 0.03825 0.0025 0.5
0.00025 0.03825 -0.0025 0.5
0.0209327 0.0320673 0.00216347 0.5
0.0209327 0.0320673 -0.00216347 0.5
0.0209327 0.0320673 0.0025 0.5
0.0209327 0.0320673 -0.0025 0.5
0.00025 0.0385 8.67362e-19 0.5
0.0209478 0.0325 -7.73341e-20 0.5
0.00025 0.03875 0.0025 0.5
0.00025 0.03875 -0.0025 0.5
0.0005 0.039 0.0025 0.5
0.0005 0.039 -0.0025 0.5
0.0209458 0.0329458 -0.00222904 0.5
0.0209458 0.0329458 0.00222904 0.5
0.0209458 0.0329458 0.0025 0.5
0.0209458 0.0329458 -0.0025 0.5
0.0209014 0.033 0.0025 0.5
0.0209014 0.033 -0.0025 0.5
0.0209448 0.0330552 0.0022241 0.5
0.0209448 0.0330552 -0.0022241 0.5
0.0209448 0.0330552 0.0025 0.5
0.0209448 0.0330552 -0.0025 0.5
0.00025 0.03925 -0.0025 0.5
0.00025 0.03925 0.0025 0.5
0.00025 0.0395 0 0.5
0.0209428 0.0335 -3.55289e-20 0.5
0.00025 0.03975 -0.0025 0.5
0.00025 0.03975 0.0025 0.5
0.0209244 0.0339244 -0.00212221 0.5
0.0209244 0.0339244 0.00212221 0.5
0.0209244 0.0339244 0.0025 0.5
0.0209244 0.0339244 -0.0025 0.5
0.0208585 0.034 0.0025 0.5
0.0208585 0.034 -0.0025 0.5
0.0209094 0.0340906 0.0020471 0.5
0.0209094 0.0340906 -0.0020471 0.5
0.0209094 0.0340906 0.0025 0.5
0.0209094 0.0340906 -0.0025 0.5
0.0005 0.04 0.0025 0.5
0.0005 0.04 -0.0025 0.5
0.00025 0.04025 0.0025 0.5
0.00025 0.04025 -0.0025 0.5
0.02089 0.0345 -9.03026e-19 0.5
0.00025 0.0405 6.77626e-19 0.5
0.0208619 0.0348619 -0.00180963 0.5
0.0208619 0.0348619 0.00180963 0.5
0.0208619 0.0348619 0.0025 0.5
0.0208619 0.0348619 -0.0025 0.5
0.0207561 0.035 0.0025 0.5
0.0207561 0.035 -0.0025 0.5
0.00025 0.04075 0.0025 0.5
0.00025 0.04075 -0.0025 0.5
0.020806 0.035194 0.00153004 0.5
0.020806 0.035194 -0.00153004 0.5
0.020806 0.035194 0.0025 0.5
0.020806 0.035194 -0.0025 0.5
0.0005 0.041 -0.0025 0.5
0.0005 0.041 0.0025 0.5
0.0207585 0.0356659 1.16858e-18 0.5
0.00025 0.04125 0.0025 0.5
0.00025 0.04125 -0.0025 0.5
0.0207488 0.0357488 0.0025 0.5
0.0207488 0.0357488 -0.0025 0.5
0.00025 0.0415 -6.77626e-19 0.5
0.0206114 0.036 -0.0025 0.5
0.0206114 0.036 0.0025 0.5
0.00025 0.04175 0.0025 0.5
0.00025 0.04175 -0.0025 0.5
0.020553 0.0365126 7.14889e-20 0.5
0.0205678 0.0364322 -0.0025 0.5
0.0205678 0.0364322 0.0025 0.5
0.020549 0.036549 -0.0025 0.5
0.020549 0.036549 0.0025 0.5
0.0005 0.042 0.0025 0.5
0.0005 0.042 -0.0025 0.5
0.00025 0.04225 0.0025 0.5
0.00025 0.04225 -0.0025 0.5
0.0204389 0.037 0.0025 0.5
0.0204389 0.037 -0.0025 0.5
0.00025 0.0425 0 0.5
0.0202852 0.0373632 -1.20159e-19 0.5
0.0202948 0.0372948 0.0025 0.5
0.0202948 0.0372948 -0.0025 0.5
0.00025 0.04275 0.0025 0.5
0.00025 0.04275 -0.0025 0.5
0.0202296 0.0377704 -0.00135218 0.5
0.0202296 0.0377704 0.00135218 0.5
0.0202296 0.0377704 0.0025 0.5
0.0202296 0.0377704 -0.0025 0.5
0.0005 0.043 0.0025 0.5
0.0005 0.043 -0.0025 0.5
0.0202592 0.038 0.0025 0.5
0.0202592 0.038 -0.0025 0.5
0.0201414 0.0381414 -0.00179314 0.5
0.0201414 0.0381414 0.00179314 0.5
0.0201414 0.0381414 0.0025 0.5
0.0201414 0.0381414 -0.0025 0.5
0.00025 0.04325 0.0025 0.5
0.00025 0.04325 -0.0025 0.5
0.0201033 0.0385 -2.54675e-20 0.5
0.00025 0.0435 0 0.5
0.00025 0.04375 0.0025 0.5
0.00025 0.04375 -0.0025 0.5
0.0200705 0.0389295 -0.00214769 0.5
0.0200705 0.0389295 0.00214769 0.5
0.0200705 0.0389295 0.0025 0.5
0.0200705 0.0389295 -0.0025 0.5
0.0201079 0.039 0.0025 0.5
0.0201079 0.039 -0.0025 0.5
0.0200529 0.0390529 0.00223526 0.5
0.0200529 0.0390529 -0.00223526 0.5
0.0200529 0.0390529 0.0025 0.5
0.0200529 0.0390529 -0.0025 0.5
0.0005 0.044 0.0025 0.5
0.0005 0.044 -0.0025 0.5
0.0200233 0.0395 -7.00606e-19 0.5
0.00025 0.04425 0.0025 0.5
0.00025 0.04425 -0.0025 0.5
0.02 0.0395928 -0.0025 0.5
0.02 0.0395928 0.0025 0.5
0.00025 0.0445 -8.67362e-19 0.5
0.0199655 0.0399655 -0.00232755 0.5
0.0199655 0.0399655 0.00232755 0.5
0.0199655 0.0399655 0.0025 0.5
0.0199655 0.0399655 -0.0025 0.5
0.0199242 0.04 0.0025 0.5
0.0199242 0.04 -0.0025 0.5
0.0199462 0.0400538 0.00223101 0.5
0.0199462 0.0400538 -0.00223101 0.5
0.0199462 0.0400538 0.0025 0.5
0.0199462 0.0400538 -0.0025 0.5
0.00025 0.04475 0.0025 0.5
0.00025 0.04475 -0.0025 0.5
0.0005 0.045 0.0025 0.5
0.0005 0.045 -0.0025 0.5
0.0198806 0.0405 1.79721e-18 0.5
0.00025 0.04525 0.0025 0.5
0.00025 0.04525 -0.0025 0.5
0.0198152 0.0408152 -0.00157622 0.5
0.0198152 0.0408152 0.00157622 0.5
0.0198152 0.0408152 -0.0025 0.5
0.0198152 0.0408152 0.0025 0.5
0.00025 0.0455 1.49078e-18 0.5
0.0196399 0.041 0.0025 0.5
0.0196399 0.041 -0.0025 0.5
0.00025 0.04575 0.0025 0.5
0.00025 0.04575 -0.0025 0.5
0.0194525 0.0414965 -1.08718e-18 0.5
0.0194604 0.0414604 -0.0025 0.5
0.0194604 0.0414604 0.0025 0.5
0.0194333 0.0415667 -0.0025 0.5
0.0194333 0.0415667 0.0025 0.5
0.0005 0.046 -0.0025 0.5
0.0005 0.046 0.0025 0.5
0.0193576 0.042 0.0025 0.5
0.0193576 0.042 -0.0025 0.5
0.00025 0.04625 0.0025 0.5
0.00025 0.04625 -0.0025 0.5
0.019205 0.042205 -0.00147488 0.5
0.019205 0.042205 0.00147488 0.5
0.019205 0.042205 0.0025 0.5
0.019205 0.042205 -0.0025 0.5
0.00025 0.0465 -8.67362e-19 0.5
0.0191603 0.0425 -5.35034e-19 0.5
0.00025 0.04675 0.0025 0.5
0.00025 0.04675 -0.0025 0.5
0.0191196 0.0428804 -0.00190187 0.5
0.0191196 0.0428804 0.00190187 0.5
0.0191196 0.0428804 -0.0025 0.5
0.0191196 0.0428804 0.0025 0.5
0.0005 0.047 0.0025 0.5
0.0005 0.047 -0.0025 0.5
0.0191618 0.043 0.0025 0.5
0.0191618 0.043 -0.0025 0.5
0.0190809 0.0430809 -0.0020955 0.5
0.0190809 0.0430809 0.0020955 0.5
0.0190809 0.0430809 0.0025 0.5
0.0190809 0.0430809 -0.0025 0.5
0.00025 0.04725 0.0025 0.5
0.00025 0.04725 -0.0025 0.5
0.019044 0.0435 4.76277e-20 0.5
0.00025 0.0475 0 0.5
0.019 0.0437794 -0.0025 0.5
0.019 0.0437794 0.0025 0.5
0.00025 0.04775 0.0025 0.5
0.00025 0.04775 -0.0025 0.5
0.0189781 0.0439781 -0.00239053 0.5
0.0189781 0.0439781 0.00239053 0.5
0.0189781 0.0439781 -0.0025 0.5
0.0189781 0.0439781 0.0025 0.5
0.0189523 0.044 0.0025 0.5
0.0189523 0.044 -0.0025 0.5
0.0189673 0.0440327 0.00233666 0.5
0.0189673 0.0440327 -0.00233666 0.5
0.0189673 0.0440327 0.0025 0.5
0.0189673 0.0440327 -0.0025 0.5
0.0005 0.048 0.0025 0.5
0.0005 0.048 -0.0025 0.5
0.00025 0.04825 0.0025 0.5
0.00025 0.04825 -0.0025 0.5
0.0188958 0.0445 -5.65511e-21 0.5
0.00025 0.0485 0 0.5
0.0188401 0.0448401 -0.00170042 0.5
0.0188401 0.0448401 0.00170042 0.5
0.0188401 0.0448401 0.0025 0.5
0.0188401 0.0448401 -0.0025 0.5
0.018692 0.045 0.0025 0.5
0.018692 0.045 -0.0025 0.5
0.00025 0.04875 0.0025 0.5
0.00025 0.04875 -0.0025 0.5
0.0005 0.049 0.0025 0.5
0.0005 0.049 -0.0025 0.5
0.018634 0.045366 0.0025 0.5
0.018634 0.045366 -0.0025 0.5
0.0186097 0.0454866 1.75761e-19 0.5
0.0185938 0.0455938 0.0025 0.5
0.0185938 0.0455938 -0.0025 0.5
0.00025 0.04925 0.0025 0.5
0.00025 0.04925 -0.0025 0.5
0.00025 0.0495 0 0.5
0.0185114 0.046 0.0025 0.5
0.0185114 0.046 -0.0025 0.5
0.00025 0.04975 0.0025 0.5
0.00025 0.04975 -0.0025 0.5
0.0184399 0.0464719 2.45163e-19 0.5
0.0184419 0.0464419 -0.0025 0.5
0.0184419 0.0464419 0.0025 0.5
0.0005 0.05 0.0025 0.5
0.0005 0.05 -0.0025 0.5
0.018425 0.046575 -0.0025 0.5
0.018425 0.046575 0.0025 0.5
0.00025 0.05025 -0.0025 0.5
0.00025 0.05025 0.0025 0.5
0.00025 0.0505 1.49078e-18 0.5
0.018381 0.047 0.0025 0.5
0.018381 0.047 -0.0025 0.5
0.0182412 0.0472412 -0.00129383 0.5
0.0182412 0.0472412 0.00129383 0.5
0.0182412 0.0472412 0.0025 0.5
0.0182412 0.0472412 -0.0025 0.5
0.00025 0.05075 -0.0025 0.5
0.00025 0.05075 0.0025 0.5
0.0182099 0.0475 -8.1998e-20 0.5
0.0005 0.051 -0.0025 0.5
0.0005 0.051 0.0025 0.5
0.0181798 0.0478202 -0.00160081 0.5
0.0181798 0.0478202 0.00160081 0.5
0.0181798 0.0478202 0.0025 0.5
0.0181798 0.0478202 -0.0025 0.5
0.00025 0.05125 0.0025 0.5
0.00025 0.05125 -0.0025 0.5
0.0182296 0.048 0.0025 0.5
0.0182296 0.048 -0.0025 0.5
0.0181272 0.0481272 0.00186413 0.5
0.0181272 0.0481272 -0.00186413 0.5
0.0181272 0.0481272 0.0025 0.5
0.0181272 0.0481272 -0.0025 0.5
0.00025 0.0515 -1.49078e-18 0.5
0.0180977 0.0485 -1.1684e-18 0.5
0.00025 0.05175 0.0025 0.5
0.00025 0.05175 -0.0025 0.5
0.0005 0.052 0.0025 0.5
0.0005 0.052 -0.0025 0.5
0.0180736 0.0489264 -0.002132 0.5
0.0180736 0.0489264 0.002132 0.5
0.0180736 0.0489264 0.0025 0.5
0.0180736 0.0489264 -0.0025 0.5
0.0181162 0.049 0.0025 0.5
0.0181162 0.049 -0.0025 0.5
0.00025 0.05225 0.0025 0.5
0.00025 0.05225 -0.0025 0.5
0.0180594 0.0490594 -0.00220319 0.5
0.0180594 0.0490594 0.00220319 0.5
0.0180594 0.0490594 0.0025 0.5
0.0180594 0.0490594 -0.0025 0.5
0.00025 0.0525 0 0.5
0.018037 0.0495 1.33744e-18 0.5
0.00025 0.05275 0.0025 0.5
0.00025 0.05275 -0.0025 0.5
0.0005 0.053 0.0025 0.5
0.0005 0.053 -0.0025 0.5
0.0180233 0.0499767 -0.00238331 0.5
0.0180233 0.0499767 0.00238331 0.5
0.0180233 0.0499767 -0.0025 0.5
0.0180233 0.0499767 0.0025 0.5
0.0180422 0.05 0.0025 0.5
0.0180422 0.05 -0.0025 0.5
0.0180209 0.0500209 -0.0023956 0.5
0.0180209 0.0500209 0.0023956 0.5
0.0180209 0.0500209 -0.0025 0.5
0.0180209 0.0500209 0.0025 0.5
0.00025 0.05325 0.0025 0.5
0.00025 0.05325 -0.0025 0.5
0.00025 0.0535 0 0.5
0.0180079 0.0505 1.62672e-18 0.5
0.00025 0.05375 0.0025 0.5
0.00025 0.05375 -0.0025 0.5
0.018 0.050732 -0.0025 0.5
0.018 0.050732 0.0025 0.5
0.0005 0.054 0.0025 0.5
0.0005 0.054 -0.0025 0.5
0.0179924 0.0509924 0.00246195 0.5
0.0179924 0.0509924 -0.00246195 0.5
0.0179924 0.0509924 0.0025 0.5
0.0179924 0.0509924 -0.0025 0.5
0.0179844 0.051 0.0025 0.5
0.0179844 0.051 -0.0025 0.5
0.0179916 0.0510084 -0.00245812 0.5
0.0179916 0.0510084 0.00245812 0.5
0.0179916 0.0510084 -0.0025 0.5
0.0179916 0.0510084 0.0025 0.5
0.00025 0.05425 0.0025 0.5
0.00025 0.05425 -0.0025 0.5
0.00025 0.0545 0 0.5
0.0179756 0.0515 -1.31347e-18 0.5
0.00025 0.05475 0.0025 0.5
0.00025 0.05475 -0.0025 0.5
0.0005 0.055 0.0025 0.5
0.0005 0.055 -0.0025 0.5
0.0179845 0.0519845 -0.00242256 0.5
0.0179845 0.0519845 0.00242256 0.5
0.0179845 0.0519845 0.0025 0.5
0.0179845 0.0519845 -0.0025 0.5
0.017971 0.052 0.0025 0.5
0.017971 0.052 -0.0025 0.5
0.0179856 0.0520144 -0.00242795 0.5
0.0179856 0.0520144 0.00242795 0.5
0.0179856 0.0520144 -0.0025 0.5
0.0179856 0.0520144 0.0025 0.5
0.00025 0.05525 0.0025 0.5
0.00025 0.05525 -0.0025 0.5
0.0179942 0.0525 3.2637e-20 0.5
0.00025 0.0555 0 0.5
0.018 0.0527334 -0.0025 0.5
0.018 0.0527334 0.0025 0.5
0.00025 0.05575 0.0025 0.5
0.00025 0.05575 -0.0025 0.5
0.0180052 0.0529948 -0.00247392 0.5
0.0180052 0.0529948 0.00247392 0.5
0.0180052 0.0529948 0.0025 0.5
0.0180052 0.0529948 -0.0025 0.5
0.0180106 0.053 0.0025 0.5
0.0180106 0.053 -0.0025 0.5
0.0180056 0.0530056 -0.00247213 0.5
0.0180056 0.0530056 0.00247213 0.5
0.0180056 0.0530056 0.0025 0.5