# f_l  POINT_DATA 1202
#  x  y  z  f_l
0.0691396 0.001665 2.04598e-20 0.5
0.0691474 0.00197036 -0.0013755 0.5
0.0691474 0.00197036 0.0013755 0.5
0.0691724 0.00138454 -0.00126333 0.5
0.0691724 0.00138454 0.00126333 0.5
0.0691474 0.00197036 0.0025 0.5
0.0691474 0.00197036 -0.0025 0.5
0.0691653 0.00248754 -0.00129488 0.5
0.0691653 0.00248754 0.00129488 0.5
0.0691724 0.00138454 0.0025 0.5
0.0691724 0.00138454 -0.0025 0.5
0.0691762 0.00295829 -9.68696e-20 0.5
0.0691653 0.00248754 -0.0025 0.5
0.0691653 0.00248754 0.0025 0.5
0.0691886 0.00222 0.0025 0.5
0.0691886 0.00222 -0.0025 0.5
0.0691779 0.00304993 -0.0025 0.5
0.0691779 0.00304993 0.0025 0.5
0.0692444 0.00111 0.0025 0.5
0.0692444 0.00111 -0.0025 0.5
0.0691973 0.00388172 -5.22911e-21 0.5
0.0691924 0.00362453 0.0025 0.5
0.0691924 0.00362453 -0.0025 0.5
0.0692136 0.00333 0.0025 0.5
0.0692136 0.00333 -0.0025 0.5
0.0692022 0.00413563 0.0025 0.5
0.0692022 0.00413563 -0.0025 0.5
0.0693246 0.000683391 0.0025 0.5
0.0693246 0.000683391 -0.0025 0.5
0.0692247 0.00499161 1.57385e-19 0.5
0.0694064 0.000548881 1.32292e-19 0.5
0.0692348 0.00444 0.0025 0.5
0.0692348 0.00444 -0.0025 0.5
0.0692197 0.00476187 0.0025 0.5
0.0692197 0.00476187 -0.0025 0.5
0.0694118 0.000513724 0.0025 0.5
0.0694118 0.000513724 -0.0025 0.5
0.0692299 0.00521795 0.0025 0.5
0.0692299 0.00521795 -0.0025 0.5
0.0692587 0.00555 0.0025 0.5
0.0692587 0.00555 -0.0025 0.5
0.0692589 0.00610144 -1.63052e-19 0.5
0.0694944 0.000513724 0.0025 0.5
0.0694944 0.000513724 -0.0025 0.5
0.0692536 0.00590574 0.0025 0.5
0.0692536 0.00590574 -0.0025 0.5
0.0692643 0.00629356 0.0025 0.5
0.0692643 0.00629356 -0.0025 0.5
0.0692873 0.00666 0.0025 0.5
0.0692873 0.00666 -0.0025 0.5
0.0693023 0.00721157 -2.11835e-20 0.5
0.0692972 0.00705925 0.0025 0.5
0.0692972 0.00705925 -0.0025 0.5
0.0693075 0.00736046 0.0025 0.5
0.0693075 0.00736046 -0.0025 0.5
0.0693212 0.00777 0.0025 0.5
0.0693212 0.00777 -0.0025 0.5
0.0693571 0.00832232 8.17798e-20 0.5
0.0693532 0.00822517 -0.0025 0.5
0.0693532 0.00822517 0.0025 0.5
0.0693612 0.00841679 -0.0025 0.5
0.0693612 0.00841679 0.0025 0.5
0.0693606 0.00888 0.0025 0.5
0.0693606 0.00888 -0.0025 0.5
0.0700088 0.000698875 -0.0025 0.5
0.0700088 0.000698875 0.0025 0.5
0.0694284 0.00946085 9.56981e-21 0.5
0.0694251 0.009407 0.0025 0.5
0.0694251 0.009407 -0.0025 0.5
0.0694278 0.00946028 0.0025 0.5
0.0694278 0.00946028 -0.0025 0.5
0.0694057 0.00999 0.0025 0.5
0.0694057 0.00999 -0.0025 0.5
0.0694996 0.010546 8.23113e-20 0.5
0.0694981 0.0105001 0.0025 0.5
0.0694981 0.0105001 -0.0025 0.5
0.0702866 0.0002775 0.0025 0.5
0.0702866 0.0002775 -0.0025 0.5
0.0695011 0.0105929 -0.0025 0.5
0.0695011 0.0105929 0.0025 0.5
0.0694561 0.0111 0.0025 0.5
0.0694561 0.0111 -0.0025 0.5
0.069569 0.0116577 -7.20462e-19 0.5
0.0695651 0.0115431 -0.0025 0.5
0.0695651 0.0115431 0.0025 0.5
0.0705644 0.0002775 2.66209e-19 0.5
0.0695732 0.0117749 -0.0025 0.5
0.0695732 0.0117749 0.0025 0.5
0.0695109 0.01221 0.0025 0.5
0.0695109 0.01221 -0.0025 0.5
0.0696371 0.0127694 6.27124e-19 0.5
0.0696307 0.0125876 0.0025 0.5
0.0696307 0.0125876 -0.0025 0.5
0.0695689 0.01332 0.0025 0.5
0.0695689 0.01332 -0.0025 0.5
0.0696439 0.0129556 0.0025 0.5
0.0696439 0.0129556 -0.0025 0.5
0.0708422 0.0002775 0.0025 0.5
0.0708422 0.0002775 -0.0025 0.5
0.0696933 0.0136351 0.0025 0.5
0.0696933 0.0136351 -0.0025 0.5
0.069702 0.0138809 -2.34751e-19 0.5
0.0696274 0.01443 0.0025 0.5
0.0696274 0.01443 -0.0025 0.5
0.07112 0.000555 -0.0025 0.5
0.07112 0.000555 0.0025 0.5
0.069711 0.0141325 0.0025 0.5
0.069711 0.0141325 -0.0025 0.5
0.0697493 0.0146891 0.00133281 0.5
0.0697493 0.0146891 -0.00133281 0.5
0.0697493 0.0146891 0.0025 0.5
0.0697493 0.0146891 -0.0025 0.5
0.0697592 0.014985 9.32999e-19 0.5
0.0696836 0.01554 0.0025 0.5
0.0696836 0.01554 -0.0025 0.5
0.0697696 0.0153011 -0.00142375 0.5
0.0697696 0.0153011 0.00142375 0.5
0.0713978 0.0002775 0.0025 0.5
0.0713978 0.0002775 -0.0025 0.5
0.0697696 0.0153011 0.0025 0.5
0.0697696 0.0153011 -0.0025 0.5
0.069798 0.0157505 0.00155195 0.5
0.069798 0.0157505 -0.00155195 0.5
0.069798 0.0157505 0.0025 0.5
0.069798 0.0157505 -0.0025 0.5
0.0698086 0.016095 2.14823e-19 0.5
0.0716756 0.0002775 9.36031e-20 0.5
0.0697362 0.01665 0.0025 0.5
0.0697362 0.01665 -0.0025 0.5
0.0698193 0.0164608 -0.00164775 0.5
0.0698193 0.0164608 0.00164775 0.5
0.0698193 0.0164608 0.0025 0.5
0.0698193 0.0164608 -0.0025 0.5
0.0698397 0.0168189 0.00173937 0.5
0.0698397 0.0168189 -0.00173937 0.5
0.0698397 0.0168189 0.0025 0.5
0.0698397 0.0168189 -0.0025 0.5
0.0698504 0.017205 1.52426e-19 0.5
0.0719534 0.0002775 0.0025 0.5
0.0719534 0.0002775 -0.0025 0.5
0.0698024 0.01776 0.0025 0.5
0.0698024 0.01776 -0.0025 0.5
0.0698723 0.0176237 -0.00188585 0.5
0.0698723 0.0176237 0.00188585 0.5
0.0698723 0.0176237 0.0025 0.5
0.0698723 0.0176237 -0.0025 0.5
0.0698845 0.0178841 0.00194103 0.5
0.0698845 0.0178841 -0.00194103 0.5
0.0698845 0.0178841 0.0025 0.5
0.0698845 0.0178841 -0.0025 0.5
0.0699073 0.018315 7.5668e-20 0.5
0.0722313 0.000555 -0.0025 0.5
0.0722313 0.000555 0.0025 0.5
0.069902 0.01887 0.0025 0.5
0.069902 0.01887 -0.0025 0.5
0.0699405 0.0188018 -0.0021929 0.5
0.0699405 0.0188018 0.0021929 0.5
0.0699405 0.0188018 0.0025 0.5
0.0699405 0.0188018 -0.0025 0.5
0.0699458 0.0189329 0.0022167 0.5
0.0699458 0.0189329 -0.0022167 0.5
0.0699458 0.0189329 0.0025 0.5
0.0699458 0.0189329 -0.0025 0.5
0.0725091 0.0002775 0.0025 0.5
0.0725091 0.0002775 -0.0025 0.5
0.0699814 0.019425 -2.6803e-20 0.5
0.0727869 0.0002775 1.145e-19 0.5
0.0700088 0.0198327 -0.0025 0.5
0.0700088 0.0198327 0.0025 0.5
0.0700184 0.0199703 -0.00245646 0.5
0.0700184 0.0199703 0.00245646 0.5
0.0700184 0.0199703 0.0025 0.5
0.0700184 0.0199703 -0.0025 0.5
0.0700206 0.0199918 -0.00244665 0.5
0.0700206 0.0199918 0.00244665 0.5
0.0700206 0.0199918 0.0025 0.5
0.0700206 0.0199918 -0.0025 0.5
0.0700262 0.01998 0.0025 0.5
0.0700262 0.01998 -0.0025 0.5
0.0700598 0.020535 -6.54305e-19 0.5
0.0730647 0.0002775 0.0025 0.5
0.0730647 0.0002775 -0.0025 0.5
0.0700933 0.0210055 -0.00211958 0.5
0.0700933 0.0210055 0.00211958 0.5
0.0700933 0.0210055 -0.0025 0.5
0.0700933 0.0210055 0.0025 0.5
0.0701141 0.0211952 0.00202614 0.5
0.0701141 0.0211952 -0.00202614 0.5
0.0701141 0.0211952 0.0025 0.5
0.0701141 0.0211952 -0.0025 0.5
0.0701482 0.02109 0.0025 0.5
0.0701482 0.02109 -0.0025 0.5
0.0733425 0.000555 -0.0025 0.5
0.0733425 0.000555 0.0025 0.5
0.0701484 0.021645 3.61789e-19 0.5
0.0701777 0.0220312 -0.00173964 0.5
0.0701777 0.0220312 0.00173964 0.5
0.0701777 0.0220312 0.0025 0.5
0.0701777 0.0220312 -0.0025 0.5
0.0736203 0.0002775 0.0025 0.5
0.0736203 0.0002775 -0.0025 0.5
0.0702625 0.0222 0.0025 0.5
0.0702625 0.0222 -0.0025 0.5
0.0702236 0.0224146 -0.00153347 0.5
0.0702236 0.0224146 0.00153347 0.5
0.0702236 0.0224146 0.0025 0.5
0.0702236 0.0224146 -0.0025 0.5
0.0702516 0.022755 -5.8651e-21 0.5
0.0738981 0.0002775 1.12679e-19 0.5
0.0702754 0.0230436 -0.00130022 0.5
0.0702754 0.0230436 0.00130022 0.5
0.0702754 0.0230436 0.0025 0.5
0.0702754 0.0230436 -0.0025 0.5
0.0703711 0.02331 0.0025 0.5
0.0703711 0.02331 -0.0025 0.5
0.0741759 0.0002775 0.0025 0.5
0.0741759 0.0002775 -0.0025 0.5
0.0703568 0.0236577 0.0025 0.5
0.0703568 0.0236577 -0.0025 0.5
0.0703744 0.0238537 -9.37979e-19 0.5
0.0703909 0.0240383 0.0025 0.5
0.0703909 0.0240383 -0.0025 0.5
0.0744538 0.000555 -0.0025 0.5
0.0744538 0.000555 0.0025 0.5
0.0704744 0.02442 0.0025 0.5
0.0704744 0.02442 -0.0025 0.5
0.0747316 0.0002775 0.0025 0.5
0.0747316 0.0002775 -0.0025 0.5
0.0705308 0.0249929 8.38643e-19 0.5
0.0705242 0.0249349 0.0025 0.5
0.0705242 0.0249349 -0.0025 0.5
0.0705313 0.025008 0.0025 0.5
0.0705313 0.025008 -0.0025 0.5
0.0750094 0.0002775 1.14375e-19 0.5
0.0705718 0.02553 0.0025 0.5
0.0705718 0.02553 -0.0025 0.5
0.0752872 0.0002775 0.0025 0.5
0.0752872 0.0002775 -0.0025 0.5
0.0706743 0.0259752 -0.0025 0.5
0.0706743 0.0259752 0.0025 0.5
0.0706819 0.0260902 -1.48566e-19 0.5
0.0706899 0.0262104 -0.0025 0.5
0.0706899 0.0262104 0.0025 0.5
0.0706637 0.02664 0.0025 0.5
0.0706637 0.02664 -0.0025 0.5
0.075565 0.000555 -0.0025 0.5
0.075565 0.000555 0.0025 0.5
0.0707851 0.0269745 0.0025 0.5
0.0707851 0.0269745 -0.0025 0.5
0.0707984 0.027204 -1.526e-21 0.5
0.0758428 0.0002775 0.0025 0.5
0.0758428 0.0002775 -0.0025 0.5
0.0708121 0.0274424 0.0025 0.5
0.0708121 0.0274424 -0.0025 0.5
0.0707498 0.02775 0.0025 0.5
0.0707498 0.02775 -0.0025 0.5
0.0761206 0.0002775 1.14623e-19 0.5
0.0708717 0.027998 -0.00138279 0.5
0.0708717 0.027998 0.00138279 0.5
0.0708717 0.027998 -0.0025 0.5
0.0708717 0.027998 0.0025 0.5
0.0708873 0.028305 -8.52914e-19 0.5
0.0763984 0.0002775 0.0025 0.5
0.0763984 0.0002775 -0.0025 0.5
0.0709037 0.028644 -0.00152699 0.5
0.0709037 0.028644 0.00152699 0.5
0.0709037 0.028644 0.0025 0.5
0.0709037 0.028644 -0.0025 0.5
0.0708295 0.02886 -0.0025 0.5
0.0708295 0.02886 0.0025 0.5
0.0709403 0.0290395 0.00169139 0.5
0.0709403 0.0290395 -0.00169139 0.5
0.0709403 0.0290395 -0.0025 0.5
0.0709403 0.0290395 0.0025 0.5
0.0766763 0.000555 -0.0025 0.5
0.0766763 0.000555 0.0025 0.5
0.0709569 0.029415 8.34015e-19 0.5
0.0769541 0.0002775 0.0025 0.5
0.0769541 0.0002775 -0.0025 0.5
0.0709717 0.0298218 -0.00183256 0.5
0.0709717 0.0298218 0.00183256 0.5
0.070899 0.02997 0.0025 0.5
0.070899 0.02997 -0.0025 0.5
0.0709717 0.0298218 -0.0025 0.5
0.0709717 0.0298218 0.0025 0.5
0.0709911 0.0300988 0.00192001 0.5
0.0709911 0.0300988 -0.00192001 0.5
0.0709911 0.0300988 -0.0025 0.5
0.0709911 0.0300988 0.0025 0.5
0.0772319 0.0002775 1.08196e-19 0.5
0.0710055 0.030525 1.57052e-19 0.5
0.0709526 0.03108 0.0025 0.5
0.0709526 0.03108 -0.0025 0.5
0.0710165 0.0309766 -0.00203442 0.5
0.0710165 0.0309766 0.00203442 0.5
0.0710165 0.0309766 0.0025 0.5
0.0710165 0.0309766 -0.0025 0.5
0.0775097 0.0002775 0.0025 0.5
0.0775097 0.0002775 -0.0025 0.5
0.0710259 0.031174 0.00207656 0.5
0.0710259 0.031174 -0.00207656 0.5
0.0710259 0.031174 0.0025 0.5
0.0710259 0.031174 -0.0025 0.5
0.0710366 0.031635 5.4174e-20 0.5
0.0777875 0.000555 -0.0025 0.5
0.0777875 0.000555 0.0025 0.5
0.0710898 0.03219 -0.0025 0.5
0.0710898 0.03219 0.0025 0.5
0.0711019 0.0321719 -0.0024186 0.5
0.0711019 0.0321719 0.0024186 0.5
0.0711019 0.0321719 0.0025 0.5
0.0711019 0.0321719 -0.0025 0.5
0.0711037 0.0322063 0.00242668 0.5
0.0711037 0.0322063 -0.00242668 0.5
0.0711037 0.0322063 0.0025 0.5
0.0711037 0.0322063 -0.0025 0.5
0.0780653 0.0002775 0.0025 0.5
0.0780653 0.0002775 -0.0025 0.5
0.07112 0.0323637 -0.0025 0.5
0.07112 0.0323637 0.0025 0.5
0.0783431 0.0002775 8.26565e-20 0.5
0.0711805 0.032745 1.16847e-19 0.5
0.0712137 0.0332065 -0.00207861 0.5
0.0712137 0.0332065 0.00207861 0.5
0.0712137 0.0332065 0.0025 0.5
0.0712137 0.0332065 -0.0025 0.5
0.0786209 0.0002775 0.0025 0.5
0.0786209 0.0002775 -0.0025 0.5
0.0712376 0.0334175 -0.00197079 0.5
0.0712376 0.0334175 0.00197079 0.5
0.0712812 0.0333 0.0025 0.5
0.0712812 0.0333 -0.0025 0.5
0.0712376 0.0334175 0.0025 0.5
0.0712376 0.0334175 -0.0025 0.5
0.0712716 0.033855 1.24853e-19 0.5
0.0788988 0.000555 -0.0025 0.5
0.0788988 0.000555 0.0025 0.5
0.0712529 0.0342773 -0.00190216 0.5
0.0712529 0.0342773 0.00190216 0.5
0.0712529 0.0342773 0.0025 0.5
0.0712529 0.0342773 -0.0025 0.5
0.071228 0.0345179 -0.002014 0.5
0.071228 0.0345179 0.002014 0.5
0.071228 0.0345179 -0.0025 0.5
0.071228 0.0345179 0.0025 0.5
0.0713047 0.03441 0.0025 0.5
0.0713047 0.03441 -0.0025 0.5
0.0791766 0.0002775 0.0025 0.5
0.0791766 0.0002775 -0.0025 0.5
0.0712105 0.034965 1.61141e-19 0.5
0.0794544 0.0002775 9.54222e-20 0.5
0.0712365 0.0354036 -0.00197573 0.5
0.0712365 0.0354036 0.00197573 0.5
0.0712365 0.0354036 0.0025 0.5
0.0712365 0.0354036 -0.0025 0.5
0.0712619 0.0356617 -0.00186151 0.5
0.0712619 0.0356617 0.00186151 0.5
0.0713196 0.03552 0.0025 0.5
0.0713196 0.03552 -0.0025 0.5
0.0712619 0.0356617 0.0025 0.5
0.0712619 0.0356617 -0.0025 0.5
0.0797322 0.0002775 0.0025 0.5
0.0797322 0.0002775 -0.0025 0.5
0.0712883 0.036075 1.78515e-19 0.5
0.08001 0.000555 -0.0025 0.5
0.08001 0.000555 0.0025 0.5
0.071306 0.0364442 -0.00166316 0.5
0.071306 0.0364442 0.00166316 0.5
0.071306 0.0364442 -0.0025 0.5
0.071306 0.0364442 0.0025 0.5
0.071408 0.03663 0.0025 0.5
0.071408 0.03663 -0.0025 0.5
0.0713382 0.036848 -0.00151815 0.5
0.0713382 0.036848 0.00151815 0.5
0.0802878 0.0002775 0.0025 0.5
0.0802878 0.0002775 -0.0025 0.5
0.0713382 0.036848 0.0025 0.5
0.0713382 0.036848 -0.0025 0.5
0.0713554 0.037185 1.01301e-18 0.5
0.0805656 0.0002775 1.15842e-19 0.5
0.0713683 0.0374919 -0.00138264 0.5
0.0713683 0.0374919 0.00138264 0.5
0.0713683 0.0374919 0.0025 0.5
0.0713683 0.0374919 -0.0025 0.5
0.0714756 0.03774 0.0025 0.5
0.0714756 0.03774 -0.0025 0.5
0.0808434 0.0002775 0.0025 0.5
0.0808434 0.0002775 -0.0025 0.5
0.0714063 0.038026 0.0025 0.5
0.0714063 0.038026 -0.0025 0.5
0.0714173 0.0382881 -1.65179e-18 0.5
0.0811213 0.000555 -0.0025 0.5
0.0811213 0.000555 0.0025 0.5
0.0714271 0.0385432 0.0025 0.5
0.0714271 0.0385432 -0.0025 0.5
0.0813991 0.0002775 0.0025 0.5
0.0813991 0.0002775 -0.0025 0.5
0.0715302 0.03885 0.0025 0.5
0.0715302 0.03885 -0.0025 0.5
0.0714694 0.039199 0.0025 0.5
0.0714694 0.039199 -0.0025 0.5
0.0714764 0.0394006 1.05416e-18 0.5
0.0816769 0.0002775 9.5745e-20 0.5
0.0714826 0.0395978 0.0025 0.5
0.0714826 0.0395978 -0.0025 0.5
0.0819547 0.0002775 0.0025 0.5
0.0819547 0.0002775 -0.0025 0.5
0.0715733 0.03996 0.0025 0.5
0.0715733 0.03996 -0.0025 0.5
0.071526 0.0403655 0.0025 0.5
0.071526 0.0403655 -0.0025 0.5
0.07153 0.0405125 9.45445e-20 0.5
0.0822325 0.000555 -0.0025 0.5
0.0822325 0.000555 0.0025 0.5
0.0715334 0.040657 0.0025 0.5
0.0715334 0.040657 -0.0025 0.5
0.0825103 0.0002775 0.0025 0.5
0.0825103 0.0002775 -0.0025 0.5
0.0716056 0.04107 0.0025 0.5
0.0716056 0.04107 -0.0025 0.5
0.0715708 0.0415203 0.0025 0.5
0.0715708 0.0415203 -0.0025 0.5
0.0827881 0.0002775 8.32524e-20 0.5
0.0715728 0.0416238 2.99138e-20 0.5
0.0715744 0.0417261 0.0025 0.5
0.0715744 0.0417261 -0.0025 0.5
0.0830659 0.0002775 0.0025 0.5
0.0830659 0.0002775 -0.0025 0.5
0.0716274 0.04218 0.0025 0.5
0.0716274 0.04218 -0.0025 0.5
0.0715999 0.0426594 0.0025 0.5
0.0715999 0.0426594 -0.0025 0.5
0.0833437 0.000555 -0.0025 0.5
0.0833437 0.000555 0.0025 0.5
0.0716008 0.0427345 1.01596e-19 0.5
0.0716015 0.042809 0.0025 0.5
0.0716015 0.042809 -0.0025 0.5
0.0836216 0.0002775 0.0025 0.5
0.0836216 0.0002775 -0.0025 0.5
0.0716404 0.04329 0.0025 0.5
0.0716404 0.04329 -0.0025 0.5
0.0838994 0.0002775 3.228e-22 0.5
0.071618 0.0438448 8.53553e-20 0.5
0.0716176 0.0437871 0.0025 0.5
0.0716176 0.0437871 -0.0025 0.5
0.0716182 0.0439024 0.0025 0.5
0.0716182 0.0439024 -0.0025 0.5
0.0841772 0.0002775 0.0025 0.5
0.0841772 0.0002775 -0.0025 0.5
0.0716462 0.0444 0.0025 0.5
0.0716462 0.0444 -0.0025 0.5
0.084455 0.000555 -0.0025 0.5
0.084455 0.000555 0.0025 0.5
0.0716213 0.0449551 1.81293e-19 0.5
0.0716213 0.0449008 0.0025 0.5
0.0716213 0.0449008 -0.0025 0.5
0.071621 0.0450096 0.0025 0.5
0.071621 0.0450096 -0.0025 0.5
0.0847328 0.0002775 0.0025 0.5
0.0847328 0.0002775 -0.0025 0.5
0.0716423 0.04551 0.0025 0.5
0.0716423 0.04551 -0.0025 0.5
0.0850106 0.0002775 0 0.5
0.0716046 0.0459941 0.0025 0.5
0.0716046 0.0459941 -0.0025 0.5
0.0716038 0.0460656 4.21631e-20 0.5
0.0716029 0.0461377 0.0025 0.5
0.0716029 0.0461377 -0.0025 0.5
0.0852884 0.0002775 0.0025 0.5
0.0852884 0.0002775 -0.0025 0.5
0.0716278 0.04662 0.0025 0.5
0.0716278 0.04662 -0.0025 0.5
0.0855663 0.000555 -0.0025 0.5
0.0855663 0.000555 0.0025 0.5
0.0715731 0.0470725 0.0025 0.5
0.0715731 0.0470725 -0.0025 0.5
0.0715712 0.0471763 2.18326e-19 0.5
0.0715691 0.0472814 0.0025 0.5
0.0715691 0.0472814 -0.0025 0.5
0.0858441 0.0002775 0.0025 0.5
0.0858441 0.0002775 -0.0025 0.5
0.0716045 0.04773 0.0025 0.5
0.0716045 0.04773 -0.0025 0.5
0.0861219 0.0002775 0 0.5
0.0715315 0.048141 0.0025 0.5
0.0715315 0.048141 -0.0025 0.5
0.0715281 0.0482874 1.8906e-19 0.5
0.0715243 0.0484362 0.0025 0.5
0.0715243 0.0484362 -0.0025 0.5
0.0863997 0.0002775 0.0025 0.5
0.0863997 0.0002775 -0.0025 0.5
0.0715732 0.04884 -0.0025 0.5
0.0715732 0.04884 0.0025 0.5
0.0866775 0.000555 -0.0025 0.5
0.0866775 0.000555 0.0025 0.5
0.0714832 0.0492028 0.0025 0.5
0.0714832 0.0492028 -0.0025 0.5
0.0714777 0.0493988 1.97603e-19 0.5
0.0869553 0.0002775 0.0025 0.5
0.0869553 0.0002775 -0.0025 0.5
0.0714718 0.0495986 0.0025 0.5
0.0714718 0.0495986 -0.0025 0.5
0.0872331 0.0002775 0 0.5
0.0715347 0.04995 -0.0025 0.5
0.0715347 0.04995 0.0025 0.5
0.0714326 0.0502623 -0.0025 0.5
0.0714326 0.0502623 0.0025 0.5
0.0714249 0.0505104 1.82247e-18 0.5
0.0875109 0.0002775 0.0025 0.5
0.0875109 0.0002775 -0.0025 0.5
0.0714165 0.0507638 -0.0025 0.5
0.0714165 0.0507638 0.0025 0.5
0.0877888 0.000555 -0.0025 0.5
0.0877888 0.000555 0.0025 0.5
0.0714898 0.05106 0.0025 0.5
0.0714898 0.05106 -0.0025 0.5
0.0713827 0.0513224 -0.00131821 0.5
0.0713827 0.0513224 0.00131821 0.5
0.0713827 0.0513224 0.0025 0.5
0.0713827 0.0513224 -0.0025 0.5
0.0880666 0.0002775 -0.00125 0.5
0.0880666 0.0002775 0.00125 0.5
0.0713731 0.051615 -9.49123e-19 0.5
0.0880666 0.0002775 0.0025 0.5
0.0880666 0.0002775 -0.0025 0.5
0.0713616 0.0519287 -0.00141307 0.5
0.0713616 0.0519287 0.00141307 0.5
0.0713616 0.0519287 0.0025 0.5
0.0713616 0.0519287 -0.0025 0.5
0.0883444 0.0002775 0 0.5
0.0883444 0.00111 0.0025 0.5
0.0883444 0.00111 -0.0025 0.5
0.0883444 0.00222 0.0025 0.5
0.0883444 0.00222 -0.0025 0.5
0.0883444 0.00333 0.0025 0.5
0.0883444 0.00333 -0.0025 0.5
0.0883444 0.00444 0.0025 0.5
0.0883444 0.00444 -0.0025 0.5
0.0714392 0.05217 0.0025 0.5
0.0714392 0.05217 -0.0025 0.5
0.071334 0.0523837 0.0015372 0.5
0.071334 0.0523837 -0.0015372 0.5
0.071334 0.0523837 -0.0025 0.5
0.071334 0.0523837 0.0025 0.5
0.0883444 0.00555 0.0025 0.5
0.0883444 0.00555 -0.0025 0.5
0.0886222 0.000555 0 0.5
0.0883444 0.00666 0.0025 0.5
0.0883444 0.00666 -0.0025 0.5
0.0886222 0.0002775 -0.00125 0.5
0.0886222 0.0002775 0.00125 0.5
0.0886222 0.0008325 0.00125 0.5
0.0886222 0.0008325 -0.00125 0.5
0.0886222 0.001665 0 0.5
0.0886222 0.0002775 0.0025 0.5
0.0886222 0.0002775 -0.0025 0.5
0.0886222 0.0008325 0.0025 0.5
0.0886222 0.0008325 -0.0025 0.5
0.0886222 0.002775 0 0.5
0.0886222 0.0013875 0.0025 0.5
0.0886222 0.0013875 -0.0025 0.5
0.0886222 0.0019425 0.0025 0.5
0.0886222 0.0019425 -0.0025 0.5
0.0886222 0.0024975 0.0025 0.5
0.0886222 0.0024975 -0.0025 0.5
0.0713221 0.052725 -5.99877e-19 0.5
0.0886222 0.003885 0 0.5
0.0886222 0.0030525 0.0025 0.5
0.0886222 0.0030525 -0.0025 0.5
0.0883444 0.00777 0.0025 0.5
0.0883444 0.00777 -0.0025 0.5
0.0886222 0.0036075 0.0025 0.5
0.0886222 0.0036075 -0.0025 0.5
0.0886222 0.0041625 0.0025 0.5
0.0886222 0.0041625 -0.0025 0.5
0.0886222 0.004995 -1.81603e-19 0.5
0.0886222 0.0047175 0.0025 0.5
0.0886222 0.0047175 -0.0025 0.5
0.0886222 0.0052725 0.0025 0.5
0.0886222 0.0052725 -0.0025 0.5
0.0883444 0.00888 0.0025 0.5
0.0883444 0.00888 -0.0025 0.5
0.0886222 0.006105 -4.31797e-21 0.5
0.0886222 0.0058275 0.0025 0.5
0.0886222 0.0058275 -0.0025 0.5
0.0886222 0.0063825 0.0025 0.5
0.0886222 0.0063825 -0.0025 0.5
0.0886222 0.007215 3.76366e-21 0.5
0.0713086 0.0530916 -0.00165137 0.5
0.0713086 0.0530916 0.00165137 0.5
0.0886222 0.0069375 -0.0025 0.5
0.0886222 0.0069375 0.0025 0.5
0.0713086 0.0530916 -0.0025 0.5
0.0713086 0.0530916 0.0025 0.5
0.0883444 0.00999 0.0025 0.5
0.0883444 0.00999 -0.0025 0.5
0.0886222 0.0074925 -0.0025 0.5
0.0886222 0.0074925 0.0025 0.5
0.0886222 0.008325 1.10296e-21 0.5
0.0886222 0.0080475 -0.0025 0.5
0.0886222 0.0080475 0.0025 0.5
0.0886222 0.0086025 -0.0025 0.5
0.0886222 0.0086025 0.0025 0.5
0.0883444 0.0111 0.0025 0.5
0.0883444 0.0111 -0.0025 0.5
0.0713841 0.05328 0.0025 0.5
0.0713841 0.05328 -0.0025 0.5
0.0712874 0.0534472 -0.00174664 0.5
0.0712874 0.0534472 0.00174664 0.5
0.0886222 0.009435 1.92878e-21 0.5
0.0886222 0.0091575 0.0025 0.5
0.0886222 0.0091575 -0.0025 0.5
0.0712874 0.0534472 0.0025 0.5
0.0712874 0.0534472 -0.0025 0.5
0.0886222 0.0097125 0.0025 0.5
0.0886222 0.0097125 -0.0025 0.5
0.0883444 0.01221 0.0025 0.5
0.0883444 0.01221 -0.0025 0.5
0.0886222 0.010545 3.88923e-21 0.5
0.0886222 0.0102675 0.0025 0.5
0.0886222 0.0102675 -0.0025 0.5
0.0886222 0.0108225 0.0025 0.5
0.0886222 0.0108225 -0.0025 0.5
0.0712738 0.053835 2.19666e-18 0.5
0.0883444 0.01332 0.0025 0.5
0.0883444 0.01332 -0.0025 0.5
0.0886222 0.0113775 0.0025 0.5
0.0886222 0.0113775 -0.0025 0.5
0.0886222 0.011655 2.78619e-21 0.5
0.0886222 0.0119325 0.0025 0.5
0.0886222 0.0119325 -0.0025 0.5
0.0886222 0.0124875 -0.0025 0.5
0.0886222 0.0124875 0.0025 0.5
0.0886222 0.012765 1.81655e-19 0.5
0.0883444 0.01443 0.0025 0.5
0.0883444 0.01443 -0.0025 0.5
0.071259 0.0542512 -0.00187458 0.5
0.071259 0.0542512 0.00187458 0.5
0.071259 0.0542512 0.0025 0.5
0.071259 0.0542512 -0.0025 0.5
0.0886222 0.0130425 -0.0025 0.5
0.0886222 0.0130425 0.0025 0.5
0.0886222 0.0135975 0.0025 0.5
0.0886222 0.0135975 -0.0025 0.5
0.0886222 0.013875 0 0.5
0.071244 0.0545138 -0.00194223 0.5
0.071244 0.0545138 0.00194223 0.5
0.0713262 0.05439 0.0025 0.5
0.0713262 0.05439 -0.0025 0.5
0.0883444 0.01554 0.0025 0.5
0.0883444 0.01554 -0.0025 0.5
0.071244 0.0545138 -0.0025 0.5
0.071244 0.0545138 0.0025 0.5
0.0886222 0.0141525 0.0025 0.5
0.0886222 0.0141525 -0.0025 0.5
0.0886222 0.0147075 -0.0025 0.5
0.0886222 0.0147075 0.0025 0.5
0.0886222 0.014985 7.52748e-21 0.5
0.0883444 0.01665 0.0025 0.5
0.0883444 0.01665 -0.0025 0.5
0.0712293 0.054945 -1.98161e-18 0.5
0.0886222 0.0152625 -0.0025 0.5
0.0886222 0.0152625 0.0025 0.5
0.0886222 0.0158175 0.0025 0.5
0.0886222 0.0158175 -0.0025 0.5
0.0886222 0.016095 0 0.5
0.0883444 0.01776 0.0025 0.5
0.0883444 0.01776 -0.0025 0.5
0.0886222 0.0163725 0.0025 0.5
0.0886222 0.0163725 -0.0025 0.5
0.0712136 0.0554065 -0.00207878 0.5
0.0712136 0.0554065 0.00207878 0.5
0.0886222 0.0169275 0.0025 0.5
0.0886222 0.0169275 -0.0025 0.5
0.0712136 0.0554065 0.0025 0.5
0.0712136 0.0554065 -0.0025 0.5
0.0886222 0.017205 0 0.5
0.0712042 0.0555841 0.00212126 0.5
0.0712042 0.0555841 -0.00212126 0.5
0.071267 0.0555 0.0025 0.5
0.071267 0.0555 -0.0025 0.5
0.0886222 0.0174825 0.0025 0.5
0.0886222 0.0174825 -0.0025 0.5
0.0712042 0.0555841 0.0025 0.5
0.0712042 0.0555841 -0.0025 0.5
0.0883444 0.01887 0.0025 0.5
0.0883444 0.01887 -0.0025 0.5
0.0886222 0.0180375 0.0025 0.5
0.0886222 0.0180375 -0.0025 0.5
0.0886222 0.018315 -4.24739e-19 0.5
0.0886222 0.0185925 0.0025 0.5
0.0886222 0.0185925 -0.0025 0.5
0.0711888 0.056055 -5.37107e-19 0.5
0.0883444 0.01998 0.0025 0.5
0.0883444 0.01998 -0.0025 0.5
0.0886222 0.0191475 0.0025 0.5
0.0886222 0.0191475 -0.0025 0.5
0.0886222 0.019425 2.54579e-19 0.5
0.0886222 0.0197025 0.0025 0.5
0.0886222 0.0197025 -0.0025 0.5
0.0883444 0.02109 0.0025 0.5
0.0883444 0.02109 -0.0025 0.5
0.071173 0.0565571 0.00226175 0.5
0.071173 0.0565571 -0.00226175 0.5
0.0886222 0.0202575 0.0025 0.5
0.0886222 0.0202575 -0.0025 0.5
0.071173 0.0565571 0.0025 0.5
0.071173 0.0565571 -0.0025 0.5
0.0886222 0.020535 -4.2863e-21 0.5
0.0711681 0.056658 -0.00228373 0.5
0.0711681 0.056658 0.00228373 0.5
0.0711681 0.056658 -0.0025 0.5
0.0711681 0.056658 0.0025 0.5
0.0712077 0.05661 -0.0025 0.5
0.0712077 0.05661 0.0025 0.5
0.0886222 0.0208125 0.0025 0.5
0.0886222 0.0208125 -0.0025 0.5
0.0883444 0.0222 0.0025 0.5
0.0883444 0.0222 -0.0025 0.5
0.0886222 0.0213675 0.0025 0.5
0.0886222 0.0213675 -0.0025 0.5
0.0886222 0.021645 -2.44648e-21 0.5
0.0711526 0.057165 -6.21394e-19 0.5
0.0886222 0.0219225 0.0025 0.5
0.0886222 0.0219225 -0.0025 0.5
0.0883444 0.02331 0.0025 0.5
0.0883444 0.02331 -0.0025 0.5
0.0886222 0.0224775 0.0025 0.5
0.0886222 0.0224775 -0.0025 0.5
0.0886222 0.022755 -2.49561e-19 0.5
0.0886222 0.0230325 0.0025 0.5
0.0886222 0.0230325 -0.0025 0.5
0.0711372 0.0577028 -0.00242263 0.5
0.0711372 0.0577028 0.00242263 0.5
0.0711372 0.0577028 0.0025 0.5
0.0711372 0.0577028 -0.0025 0.5
0.0711358 0.0577358 -0.00242896 0.5
0.0711358 0.0577358 0.00242896 0.5
0.0711358 0.0577358 0.0025 0.5
0.0711358 0.0577358 -0.0025 0.5
0.07115 0.05772 -0.0025 0.5
0.07115 0.05772 0.0025 0.5
0.0883444 0.02442 0.0025 0.5
0.0883444 0.02442 -0.0025 0.5
0.0886222 0.0235875 0.0025 0.5
0.0886222 0.0235875 -0.0025 0.5
0.0886222 0.023865 4.33092e-19 0.5
0.0886222 0.0241425 0.0025 0.5
0.0886222 0.0241425 -0.0025 0.5
0.0711208 0.058275 2.71365e-18 0.5
0.0883444 0.02553 0.0025 0.5
0.0883444 0.02553 -0.0025 0.5
0.07112 0.0583315 -0.0025 0.5
0.07112 0.0583315 0.0025 0.5
0.0886222 0.0246975 -0.0025 0.5
0.0886222 0.0246975 0.0025 0.5
0.0886222 0.024975 1.19177e-21 0.5
0.0886222 0.0252525 0.0025 0.5
0.0886222 0.0252525 -0.0025 0.5
0.0883444 0.02664 0.0025 0.5
0.0883444 0.02664 -0.0025 0.5
0.0711071 0.0588171 -0.00244193 0.5
0.0711071 0.0588171 0.00244193 0.5
0.0710958 0.05883 0.0025 0.5
0.0710958 0.05883 -0.0025 0.5
0.0711071 0.0588171 0.0025 0.5
0.0711071 0.0588171 -0.0025 0.5
0.0711068 0.0588432 -0.00244041 0.5
0.0711068 0.0588432 0.00244041 0.5
0.0711068 0.0588432 -0.0025 0.5
0.0711068 0.0588432 0.0025 0.5
0.0886222 0.0258075 0.0025 0.5
0.0886222 0.0258075 -0.0025 0.5
0.0886222 0.026085 9.22105e-21 0.5
0.0886222 0.0263625 0.0025 0.5
0.0886222 0.0263625 -0.0025 0.5
0.0710934 0.059385 1.09215e-19 0.5
0.0883444 0.02775 0.0025 0.5
0.0883444 0.02775 -0.0025 0.5
0.0886222 0.0269175 0.0025 0.5
0.0886222 0.0269175 -0.0025 0.5
0.0886222 0.027195 1.2044e-20 0.5
0.0886222 0.0274725 0.0025 0.5
0.0886222 0.0274725 -0.0025 0.5
0.0883444 0.02886 0.0025 0.5
0.0883444 0.02886 -0.0025 0.5
0.0886222 0.0280275 0.0025 0.5
0.0886222 0.0280275 -0.0025 0.5
0.0710814 0.0599014 0.00232634 0.5
0.0710814 0.0599014 -0.00232634 0.5
0.0710484 0.05994 0.0025 0.5
0.0710484 0.05994 -0.0025 0.5
0.0710814 0.0599014 0.0025 0.5
0.0710814 0.0599014 -0.0025 0.5
0.0886222 0.028305 -8.22717e-21 0.5
0.0710804 0.0599795 0.00232192 0.5
0.0710804 0.0599795 -0.00232192 0.5
0.0710804 0.0599795 0.0025 0.5
0.0710804 0.0599795 -0.0025 0.5
0.0886222 0.0285825 0.0025 0.5
0.0886222 0.0285825 -0.0025 0.5
0.0886222 0.0291375 0.0025 0.5
0.0886222 0.0291375 -0.0025 0.5
0.0883444 0.02997 0.0025 0.5
0.0883444 0.02997 -0.0025 0.5
0.0710687 0.060495 -8.98237e-19 0.5
0.0886222 0.029415 -6.85063e-19 0.5
0.0886222 0.0296925 0.0025 0.5
0.0886222 0.0296925 -0.0025 0.5
0.0886222 0.0302475 0.0025 0.5
0.0886222 0.0302475 -0.0025 0.5
0.0710643 0.0609944 0.00224936 0.5
0.0710643 0.0609944 -0.00224936 0.5
0.0710643 0.0609944 0.0025 0.5
0.0710643 0.0609944 -0.0025 0.5
0.0710178 0.06105 0.0025 0.5
0.0710178 0.06105 -0.0025 0.5
0.0883444 0.03108 0.0025 0.5
0.0883444 0.03108 -0.0025 0.5
0.0886222 0.030525 6.22217e-19 0.5
0.0710628 0.0611071 0.00224274 0.5
0.0710628 0.0611071 -0.00224274 0.5
0.0710628 0.0611071 0.0025 0.5
0.0710628 0.0611071 -0.0025 0.5
0.0886222 0.0308025 0.0025 0.5
0.0886222 0.0308025 -0.0025 0.5
0.0886222 0.0313575 0.0025 0.5
0.0886222 0.0313575 -0.0025 0.5
0.0710584 0.061605 1.42102e-19 0.5
0.0883444 0.03219 0.0025 0.5
0.0883444 0.03219 -0.0025 0.5
0.0886222 0.031635 -3.88923e-21 0.5
0.0886222 0.0319125 0.0025 0.5
0.0886222 0.0319125 -0.0025 0.5
0.0710553 0.0620954 -0.00220899 0.5
0.0710553 0.0620954 0.00220899 0.5
0.0710553 0.0620954 0.0025 0.5
0.0710553 0.0620954 -0.0025 0.5
0.0710028 0.06216 0.0025 0.5
0.0710028 0.06216 -0.0025 0.5
0.0886222 0.0324675 0.0025 0.5
0.0886222 0.0324675 -0.0025 0.5
0.0883444 0.0333 0.0025 0.5
0.0883444 0.0333 -0.0025 0.5
0.0710537 0.0622262 0.00220161 0.5
0.0710537 0.0622262 -0.00220161 0.5
0.0886222 0.032745 0 0.5
0.0710537 0.0622262 0.0025 0.5
0.0710537 0.0622262 -0.0025 0.5
0.0886222 0.0330225 0.0025 0.5
0.0886222 0.0330225 -0.0025 0.5
0.0710506 0.062715 4.93333e-20 0.5
0.0886222 0.0335775 0.0025 0.5
0.0886222 0.0335775 -0.0025 0.5
0.0883444 0.03441 0.0025 0.5
0.0883444 0.03441 -0.0025 0.5
0.0886222 0.033855 0 0.5
0.0886222 0.0341325 0.0025 0.5
0.0886222 0.0341325 -0.0025 0.5
0.0710478 0.0631979 -0.00217524 0.5
0.0710478 0.0631979 0.00217524 0.5
0.0710478 0.0631979 0.0025 0.5
0.0710478 0.0631979 -0.0025 0.5
0.0709909 0.06327 0.0025 0.5
0.0709909 0.06327 -0.0025 0.5
0.0886222 0.0346875 0.0025 0.5
0.0886222 0.0346875 -0.0025 0.5
0.0710461 0.0633438 0.00216765 0.5
0.0710461 0.0633438 -0.00216765 0.5
0.0710461 0.0633438 0.0025 0.5
0.0710461 0.0633438 -0.0025 0.5
0.0883444 0.03552 0.0025 0.5
0.0883444 0.03552 -0.0025 0.5
0.0886222 0.034965 -3.39789e-22 0.5
0.0886222 0.0352425 0.0025 0.5
0.0886222 0.0352425 -0.0025 0.5
0.0710433 0.063825 5.21141e-20 0.5
0.0886222 0.0357975 0.0025 0.5
0.0886222 0.0357975 -0.0025 0.5
0.0883444 0.03663 0.0025 0.5
0.0883444 0.03663 -0.0025 0.5
0.0886222 0.036075 1.76716e-21 0.5
0.0886222 0.0363525 0.0025 0.5
0.0886222 0.0363525 -0.0025 0.5
0.0710403 0.0643004 -0.00214135 0.5
0.0710403 0.0643004 0.00214135 0.5
0.0710403 0.0643004 0.0025 0.5
0.0710403 0.0643004 -0.0025 0.5
0.070979 0.06438 0.0025 0.5
0.070979 0.06438 -0.0025 0.5
0.0710382 0.0644617 0.00213197 0.5
0.0710382 0.0644617 -0.00213197 0.5
0.0710382 0.0644617 0.0025 0.5
0.0710382 0.0644617 -0.0025 0.5
0.0886222 0.0369075 0.0025 0.5
0.0886222 0.0369075 -0.0025 0.5
0.0883444 0.03774 0.0025 0.5
0.0883444 0.03774 -0.0025 0.5
0.0886222 0.037185 -6.78638e-19 0.5
0.0710351 0.064935 2.91977e-21 0.5
0.0886222 0.0374625 0.0025 0.5
0.0886222 0.0374625 -0.0025 0.5
0.0886222 0.0380175 -0.0025 0.5
0.0886222 0.0380175 0.0025 0.5
0.0883444 0.03885 0.0025 0.5
0.0883444 0.03885 -0.0025 0.5
0.0886222 0.038295 1.29532e-18 0.5
0.0710621 0.0654322 -0.00223954 0.5
0.0710621 0.0654322 0.00223954 0.5
0.0710621 0.0654322 0.0025 0.5
0.0710621 0.0654322 -0.0025 0.5
0.071021 0.06549 0.0025 0.5
0.071021 0.06549 -0.0025 0.5
0.0886222 0.0385725 -0.0025 0.5
0.0886222 0.0385725 0.0025 0.5
0.0710639 0.065546 0.00224774 0.5
0.0710639 0.065546 -0.00224774 0.5
0.0710639 0.065546 0.0025 0.5
0.0710639 0.065546 -0.0025 0.5
0.07112 0.0655774 -0.0025 0.5
0.07112 0.0655774 0.0025 0.5
0.0886222 0.0391275 -0.0025 0.5
0.0886222 0.0391275 0.0025 0.5
0.0886222 0.039405 -6.22645e-19 0.5
0.0883444 0.03996 0.0025 0.5
0.0883444 0.03996 -0.0025 0.5
0.0710933 0.066045 2.23165e-19 0.5
0.0886222 0.0396825 -0.0025 0.5
0.0886222 0.0396825 0.0025 0.5
0.0886222 0.0402375 0.0025 0.5
0.0886222 0.0402375 -0.0025 0.5
0.0886222 0.040515 -2.0701e-21 0.5
0.0883444 0.04107 0.0025 0.5
0.0883444 0.04107 -0.0025 0.5
0.0714222 0.0662981 0.0025 0.5
0.0714222 0.0662981 -0.0025 0.5
0.0886222 0.0407925 0.0025 0.5
0.0886222 0.0407925 -0.0025 0.5
0.0716756 0.0662981 5.42101e-20 0.5
0.0886222 0.0413475 0.0025 0.5