# f_l  POINT_DATA 1136
#  x  y  z  f_l
0.0760701 0.00163889 1.74929e-19 0.5
0.07602 0.00222 0.0025 0.5
0.07602 0.00222 -0.0025 0.5
0.0760606 0.00111 0.0025 0.5
0.0760606 0.00111 -0.0025 0.5
0.076065 0.00172052 0.0025 0.5
0.076065 0.00172052 -0.0025 0.5
0.0760693 0.00161377 0.0025 0.5
0.0760693 0.00161377 -0.0025 0.5
0.0760968 0.00277472 1.3729e-19 0.5
0.0760348 0.00333 0.0025 0.5
0.0760348 0.00333 -0.0025 0.5
0.0760963 0.0027507 0.0025 0.5
0.0760963 0.0027507 -0.0025 0.5
0.0760971 0.00279846 0.0025 0.5
0.0760971 0.00279846 -0.0025 0.5
0.0760446 0.00444 0.0025 0.5
0.0760446 0.00444 -0.0025 0.5
0.076116 0.0039066 3.15746e-19 0.5
0.076221 0.000620411 1.23206e-19 0.5
0.0761156 0.00387994 0.0025 0.5
0.0761156 0.00387994 -0.0025 0.5
0.0761157 0.00388995 0.0025 0.5
0.0761157 0.00388995 -0.0025 0.5
0.0762189 0.000653116 0.0025 0.5
0.0762189 0.000653116 -0.0025 0.5
0.0761301 0.00499504 7.9156e-21 0.5
0.0760541 0.00555 0.0025 0.5
0.0760541 0.00555 -0.0025 0.5
0.0761301 0.00498558 0.0025 0.5
0.0761301 0.00498558 -0.0025 0.5
0.0761302 0.00500453 0.0025 0.5
0.0761302 0.00500453 -0.0025 0.5
0.0761437 0.0061051 1.62457e-19 0.5
0.0760643 0.00666 0.0025 0.5
0.0760643 0.00666 -0.0025 0.5
0.0761436 0.00608207 -0.0025 0.5
0.0761436 0.00608207 0.0025 0.5
0.0761439 0.00612823 -0.0025 0.5
0.0761439 0.00612823 0.0025 0.5
0.0761578 0.00721517 8.66109e-23 0.5
0.0760759 0.00777 0.0025 0.5
0.0760759 0.00777 -0.0025 0.5
0.0761575 0.00717813 0.0025 0.5
0.0761575 0.00717813 -0.0025 0.5
0.0761581 0.0072524 0.0025 0.5
0.0761581 0.0072524 -0.0025 0.5
0.076174 0.00832529 8.86991e-20 0.5
0.0760892 0.00888 0.0025 0.5
0.0760892 0.00888 -0.0025 0.5
0.0761735 0.00827214 0.0025 0.5
0.0761735 0.00827214 -0.0025 0.5
0.0761744 0.00837873 0.0025 0.5
0.0761744 0.00837873 -0.0025 0.5
0.0766763 0.000748018 0.0025 0.5
0.0766763 0.000748018 -0.0025 0.5
0.0761921 0.00943544 -9.47672e-20 0.5
0.0761044 0.00999 0.0025 0.5
0.0761044 0.00999 -0.0025 0.5
0.0761915 0.00936422 0.0025 0.5
0.0761915 0.00936422 -0.0025 0.5
0.0761928 0.00950709 0.0025 0.5
0.0761928 0.00950709 -0.0025 0.5
0.076212 0.0105456 6.1579e-20 0.5
0.0762111 0.0104546 0.0025 0.5
0.0762111 0.0104546 -0.0025 0.5
0.0761215 0.0111 0.0025 0.5
0.0761215 0.0111 -0.0025 0.5
0.0762129 0.0106372 0.0025 0.5
0.0762129 0.0106372 -0.0025 0.5
0.0769541 0.0002775 0.0025 0.5
0.0769541 0.0002775 -0.0025 0.5
0.0762335 0.0116558 -5.65196e-19 0.5
0.0762323 0.0115434 0.0025 0.5
0.0762323 0.0115434 -0.0025 0.5
0.0761405 0.01221 0.0025 0.5
0.0761405 0.01221 -0.0025 0.5
0.0762348 0.0117691 0.0025 0.5
0.0762348 0.0117691 -0.0025 0.5
0.0772319 0.0002775 1.08196e-19 0.5
0.0762566 0.0127661 6.87624e-19 0.5
0.076255 0.0126308 0.0025 0.5
0.076255 0.0126308 -0.0025 0.5
0.0761613 0.01332 0.0025 0.5
0.0761613 0.01332 -0.0025 0.5
0.0762583 0.0129025 -0.0025 0.5
0.0762583 0.0129025 0.0025 0.5
0.076281 0.0138764 2.61356e-19 0.5
0.0762789 0.0137169 0.0025 0.5
0.0762789 0.0137169 -0.0025 0.5
0.0775097 0.0002775 0.0025 0.5
0.0775097 0.0002775 -0.0025 0.5
0.076184 0.01443 0.0025 0.5
0.076184 0.01443 -0.0025 0.5
0.0762831 0.0140373 0.0025 0.5
0.0762831 0.0140373 -0.0025 0.5
0.0763065 0.0149867 1.68403e-21 0.5
0.0763039 0.0148019 0.0025 0.5
0.0763039 0.0148019 -0.0025 0.5
0.0762086 0.01554 0.0025 0.5
0.0762086 0.01554 -0.0025 0.5
0.0777875 0.000555 -0.0025 0.5
0.0777875 0.000555 0.0025 0.5
0.0763091 0.0151733 0.0025 0.5
0.0763091 0.0151733 -0.0025 0.5
0.0763297 0.0158861 0.0025 0.5
0.0763297 0.0158861 -0.0025 0.5
0.0763328 0.0160971 1.97914e-19 0.5
0.076235 0.01665 0.0025 0.5
0.076235 0.01665 -0.0025 0.5
0.0763361 0.0163102 0.0025 0.5
0.0763361 0.0163102 -0.0025 0.5
0.0780653 0.0002775 0.0025 0.5
0.0780653 0.0002775 -0.0025 0.5
0.0763563 0.0169696 0.0025 0.5
0.0763563 0.0169696 -0.0025 0.5
0.07636 0.0172075 3.37374e-19 0.5
0.0783431 0.0002775 8.26565e-20 0.5
0.0762632 0.01776 0.0025 0.5
0.0762632 0.01776 -0.0025 0.5
0.0763638 0.0174479 0.0025 0.5
0.0763638 0.0174479 -0.0025 0.5
0.0763834 0.0180525 -0.0025 0.5
0.0763834 0.0180525 0.0025 0.5
0.0763877 0.0183179 2.22511e-19 0.5
0.0762931 0.01887 0.0025 0.5
0.0762931 0.01887 -0.0025 0.5
0.0763922 0.0185863 0.0025 0.5
0.0763922 0.0185863 -0.0025 0.5
0.0786209 0.0002775 0.0025 0.5
0.0786209 0.0002775 -0.0025 0.5
0.0764108 0.0191351 0.00130575 0.5
0.0764108 0.0191351 -0.00130575 0.5
0.0764108 0.0191351 0.0025 0.5
0.0764108 0.0191351 -0.0025 0.5
0.0764157 0.019425 3.72897e-20 0.5
0.0763246 0.01998 0.0025 0.5
0.0763246 0.01998 -0.0025 0.5
0.0764211 0.0197251 -0.00135176 0.5
0.0764211 0.0197251 0.00135176 0.5
0.0788988 0.000555 -0.0025 0.5
0.0788988 0.000555 0.0025 0.5
0.0764211 0.0197251 0.0025 0.5
0.0764211 0.0197251 -0.0025 0.5
0.0764384 0.0202175 0.00143001 0.5
0.0764384 0.0202175 -0.00143001 0.5
0.0764384 0.0202175 0.0025 0.5
0.0764384 0.0202175 -0.0025 0.5
0.076444 0.020535 -5.31652e-19 0.5
0.0791766 0.0002775 0.0025 0.5
0.0791766 0.0002775 -0.0025 0.5
0.0763572 0.02109 0.0025 0.5
0.0763572 0.02109 -0.0025 0.5
0.0764501 0.0208641 -0.00148225 0.5
0.0764501 0.0208641 0.00148225 0.5
0.0764501 0.0208641 0.0025 0.5
0.0764501 0.0208641 -0.0025 0.5
0.0764659 0.0213001 0.00155367 0.5
0.0764659 0.0213001 -0.00155367 0.5
0.0764659 0.0213001 -0.0025 0.5
0.0764659 0.0213001 0.0025 0.5
0.0794544 0.0002775 9.54222e-20 0.5
0.0764721 0.021645 6.63841e-19 0.5
0.0763898 0.0222 0.0025 0.5
0.0763898 0.0222 -0.0025 0.5
0.0764787 0.0220027 -0.00161111 0.5
0.0764787 0.0220027 0.00161111 0.5
0.0764787 0.0220027 0.0025 0.5
0.0764787 0.0220027 -0.0025 0.5
0.0764925 0.0223835 0.0016732 0.5
0.0764925 0.0223835 -0.0016732 0.5
0.0764925 0.0223835 0.0025 0.5
0.0764925 0.0223835 -0.0025 0.5
0.0797322 0.0002775 0.0025 0.5
0.0797322 0.0002775 -0.0025 0.5
0.0764991 0.022755 3.74363e-20 0.5
0.0764204 0.02331 0.0025 0.5
0.0764204 0.02331 -0.0025 0.5
0.0765055 0.0231394 -0.00173152 0.5
0.0765055 0.0231394 0.00173152 0.5
0.0765055 0.0231394 0.0025 0.5
0.0765055 0.0231394 -0.0025 0.5
0.08001 0.000555 -0.0025 0.5
0.08001 0.000555 0.0025 0.5
0.0765162 0.0234699 -0.00177986 0.5
0.0765162 0.0234699 0.00177986 0.5
0.0765162 0.0234699 0.0025 0.5
0.0765162 0.0234699 -0.0025 0.5
0.0765225 0.023865 1.50187e-20 0.5
0.0764561 0.02442 0.0025 0.5
0.0764561 0.02442 -0.0025 0.5
0.0765338 0.0242777 -0.00185892 0.5
0.0765338 0.0242777 0.00185892 0.5
0.0802878 0.0002775 0.0025 0.5
0.0802878 0.0002775 -0.0025 0.5
0.0765338 0.0242777 0.0025 0.5
0.0765338 0.0242777 -0.0025 0.5
0.0765401 0.024556 0.00188738 0.5
0.0765401 0.024556 -0.00188738 0.5
0.0765401 0.024556 0.0025 0.5
0.0765401 0.024556 -0.0025 0.5
0.0765516 0.024975 9.56551e-21 0.5
0.0805656 0.0002775 1.15842e-19 0.5
0.0765033 0.02553 0.0025 0.5
0.0765033 0.02553 -0.0025 0.5
0.076566 0.0254199 -0.00200408 0.5
0.076566 0.0254199 0.00200408 0.5
0.076566 0.0254199 0.0025 0.5
0.076566 0.0254199 -0.0025 0.5
0.0765702 0.0256359 0.00202294 0.5
0.0765702 0.0256359 -0.00202294 0.5
0.0765702 0.0256359 0.0025 0.5
0.0765702 0.0256359 -0.0025 0.5
0.0808434 0.0002775 0.0025 0.5
0.0808434 0.0002775 -0.0025 0.5
0.0765852 0.026085 1.19137e-19 0.5
0.0765532 0.02664 0.0025 0.5
0.0765532 0.02664 -0.0025 0.5
0.0765987 0.0265626 -0.00215121 0.5
0.0765987 0.0265626 0.00215121 0.5
0.0765987 0.0265626 0.0025 0.5
0.0765987 0.0265626 -0.0025 0.5
0.0766015 0.0267147 0.00216352 0.5
0.0766015 0.0267147 -0.00216352 0.5
0.0811213 0.000555 -0.0025 0.5
0.0811213 0.000555 0.0025 0.5
0.0766015 0.0267147 0.0025 0.5
0.0766015 0.0267147 -0.0025 0.5
0.0766154 0.027195 9.38482e-20 0.5
0.0813991 0.0002775 0.0025 0.5
0.0813991 0.0002775 -0.0025 0.5
0.0766006 0.02775 0.0025 0.5
0.0766006 0.02775 -0.0025 0.5
0.0766292 0.027703 -0.00228811 0.5
0.0766292 0.027703 0.00228811 0.5
0.0766292 0.027703 0.0025 0.5
0.0766292 0.027703 -0.0025 0.5
0.0766307 0.0277955 0.00229496 0.5
0.0766307 0.0277955 -0.00229496 0.5
0.0766307 0.0277955 0.0025 0.5
0.0766307 0.0277955 -0.0025 0.5
0.0816769 0.0002775 9.5745e-20 0.5
0.0766448 0.028305 2.13228e-19 0.5
0.076647 0.02886 0.0025 0.5
0.076647 0.02886 -0.0025 0.5
0.0766582 0.028842 -0.00241885 0.5
0.0766582 0.028842 0.00241885 0.5
0.0766582 0.028842 0.0025 0.5
0.0766582 0.028842 -0.0025 0.5
0.0766587 0.0288775 0.0024211 0.5
0.0766587 0.0288775 -0.0024211 0.5
0.0766587 0.0288775 0.0025 0.5
0.0766587 0.0288775 -0.0025 0.5
0.0819547 0.0002775 0.0025 0.5
0.0819547 0.0002775 -0.0025 0.5
0.0766725 0.029415 2.74026e-19 0.5
0.0766763 0.0295487 -0.0025 0.5
0.0766763 0.0295487 0.0025 0.5
0.0822325 0.000555 -0.0025 0.5
0.0822325 0.000555 0.0025 0.5
0.076687 0.0299593 -0.00245179 0.5
0.076687 0.0299593 0.00245179 0.5
0.076687 0.0299593 0.0025 0.5
0.076687 0.0299593 -0.0025 0.5
0.0766878 0.0299815 -0.00244799 0.5
0.0766878 0.0299815 0.00244799 0.5
0.0766878 0.0299815 0.0025 0.5
0.0766878 0.0299815 -0.0025 0.5
0.0766944 0.02997 0.0025 0.5
0.0766944 0.02997 -0.0025 0.5
0.0825103 0.0002775 0.0025 0.5
0.0825103 0.0002775 -0.0025 0.5
0.0767026 0.030525 -1.74241e-20 0.5
0.0767109 0.0310454 -0.00234407 0.5
0.0767109 0.0310454 0.00234407 0.5
0.0827881 0.0002775 8.32524e-20 0.5
0.0767109 0.0310454 0.0025 0.5
0.0767109 0.0310454 -0.0025 0.5
0.0767125 0.0311162 0.00233684 0.5
0.0767125 0.0311162 -0.00233684 0.5
0.0767125 0.0311162 0.0025 0.5
0.0767125 0.0311162 -0.0025 0.5
0.0767325 0.03108 0.0025 0.5
0.0767325 0.03108 -0.0025 0.5
0.0767209 0.031635 1.35223e-18 0.5
0.0830659 0.0002775 0.0025 0.5
0.0830659 0.0002775 -0.0025 0.5
0.0767743 0.032092 -0.00205873 0.5
0.0767743 0.032092 0.00205873 0.5
0.0767743 0.032092 0.0025 0.5
0.0767743 0.032092 -0.0025 0.5
0.0768464 0.03219 -0.0025 0.5
0.0768464 0.03219 0.0025 0.5
0.0768302 0.0323438 -0.00180728 0.5
0.0768302 0.0323438 0.00180728 0.5
0.0833437 0.000555 -0.0025 0.5
0.0833437 0.000555 0.0025 0.5
0.0768302 0.0323438 0.0025 0.5
0.0768302 0.0323438 -0.0025 0.5
0.0768868 0.032745 -1.04506e-18 0.5
0.0836216 0.0002775 0.0025 0.5
0.0836216 0.0002775 -0.0025 0.5
0.0768992 0.0330773 -0.0014967 0.5
0.0768992 0.0330773 0.0014967 0.5
0.0768992 0.0330773 0.0025 0.5
0.0768992 0.0330773 -0.0025 0.5
0.0838994 0.0002775 3.228e-22 0.5
0.0769684 0.0333 -0.0025 0.5
0.0769684 0.0333 0.0025 0.5
0.0769257 0.0335492 -0.00137764 0.5
0.0769257 0.0335492 0.00137764 0.5
0.0769257 0.0335492 0.0025 0.5
0.0769257 0.0335492 -0.0025 0.5
0.0769375 0.033855 1.91588e-19 0.5
0.0769084 0.0341781 -0.00145528 0.5
0.0769084 0.0341781 0.00145528 0.5
0.0769084 0.0341781 0.0025 0.5
0.0769084 0.0341781 -0.0025 0.5
0.0841772 0.0002775 0.0025 0.5
0.0841772 0.0002775 -0.0025 0.5
0.0768455 0.0345791 -0.00173829 0.5
0.0768455 0.0345791 0.00173829 0.5
0.0768455 0.0345791 0.0025 0.5
0.0768455 0.0345791 -0.0025 0.5
0.076933 0.03441 0.0025 0.5
0.076933 0.03441 -0.0025 0.5
0.0768155 0.034965 1.76089e-19 0.5
0.084455 0.000555 -0.0025 0.5
0.084455 0.000555 0.0025 0.5
0.0768289 0.0353675 -0.00181307 0.5
0.0768289 0.0353675 0.00181307 0.5
0.0768289 0.0353675 0.0025 0.5
0.0768289 0.0353675 -0.0025 0.5
0.0768977 0.03552 0.0025 0.5
0.0768977 0.03552 -0.0025 0.5
0.0768453 0.0356889 0.00173926 0.5
0.0768453 0.0356889 -0.00173926 0.5
0.0768453 0.0356889 0.0025 0.5
0.0768453 0.0356889 -0.0025 0.5
0.0847328 0.0002775 0.0025 0.5
0.0847328 0.0002775 -0.0025 0.5
0.0768586 0.036075 9.57505e-19 0.5
0.0850106 0.0002775 0 0.5
0.076867 0.0364394 -0.00164154 0.5
0.076867 0.0364394 0.00164154 0.5
0.076867 0.0364394 -0.0025 0.5
0.076867 0.0364394 0.0025 0.5
0.0769385 0.03663 0.0025 0.5
0.0769385 0.03663 -0.0025 0.5
0.0768812 0.0368347 -0.00157782 0.5
0.0768812 0.0368347 0.00157782 0.5
0.0768812 0.0368347 -0.0025 0.5
0.0768812 0.0368347 0.0025 0.5
0.0852884 0.0002775 0.0025 0.5
0.0852884 0.0002775 -0.0025 0.5
0.0768895 0.037185 -5.82994e-19 0.5
0.0768957 0.0375208 -0.00151246 0.5
0.0768957 0.0375208 0.00151246 0.5
0.0768957 0.0375208 0.0025 0.5
0.0768957 0.0375208 -0.0025 0.5
0.0855663 0.000555 -0.0025 0.5
0.0855663 0.000555 0.0025 0.5
0.0769674 0.03774 0.0025 0.5
0.0769674 0.03774 -0.0025 0.5
0.0769088 0.0379723 -0.00145372 0.5
0.0769088 0.0379723 0.00145372 0.5
0.0769088 0.0379723 0.0025 0.5
0.0769088 0.0379723 -0.0025 0.5
0.0858441 0.0002775 0.0025 0.5
0.0858441 0.0002775 -0.0025 0.5
0.0769149 0.038295 2.44195e-19 0.5
0.0769195 0.038607 -0.00140533 0.5
0.0769195 0.038607 0.00140533 0.5
0.0769195 0.038607 0.0025 0.5
0.0769195 0.038607 -0.0025 0.5
0.0861219 0.0002775 0 0.5
0.0769898 0.03885 0.0025 0.5
0.0769898 0.03885 -0.0025 0.5
0.0769312 0.0391047 0.00135274 0.5
0.0769312 0.0391047 -0.00135274 0.5
0.0769312 0.0391047 0.0025 0.5
0.0769312 0.0391047 -0.0025 0.5
0.0863997 0.0002775 0.0025 0.5
0.0863997 0.0002775 -0.0025 0.5
0.0769358 0.039405 1.29235e-19 0.5
0.076939 0.0396976 -0.00131792 0.5
0.076939 0.0396976 0.00131792 0.5
0.076939 0.0396976 0.0025 0.5
0.076939 0.0396976 -0.0025 0.5
0.0866775 0.000555 -0.0025 0.5
0.0866775 0.000555 0.0025 0.5
0.0770067 0.03996 0.0025 0.5
0.0770067 0.03996 -0.0025 0.5
0.0769481 0.0402316 -0.0012766 0.5
0.0769481 0.0402316 0.0012766 0.5
0.0769481 0.0402316 -0.0025 0.5
0.0769481 0.0402316 0.0025 0.5
0.0769513 0.040515 1.25019e-18 0.5
0.0869553 0.0002775 0.0025 0.5
0.0869553 0.0002775 -0.0025 0.5
0.0769532 0.0407933 -0.00125383 0.5
0.0769532 0.0407933 0.00125383 0.5
0.0769532 0.0407933 0.0025 0.5
0.0769532 0.0407933 -0.0025 0.5
0.0872331 0.0002775 0 0.5
0.0770182 0.04107 0.0025 0.5
0.0770182 0.04107 -0.0025 0.5
0.0769596 0.041353 0.0025 0.5
0.0769596 0.041353 -0.0025 0.5
0.0769614 0.0416238 -1.45244e-18 0.5
0.0875109 0.0002775 0.0025 0.5
0.0875109 0.0002775 -0.0025 0.5
0.0769631 0.0418935 0.0025 0.5
0.0769631 0.0418935 -0.0025 0.5
0.0877888 0.000555 -0.0025 0.5
0.0877888 0.000555 0.0025 0.5
0.0770264 0.04218 0.0025 0.5
0.0770264 0.04218 -0.0025 0.5
0.0769685 0.0424719 0.0025 0.5
0.0769685 0.0424719 -0.0025 0.5
0.0769697 0.0427343 8.76442e-19 0.5
0.0880666 0.0002775 -0.00125 0.5
0.0880666 0.0002775 0.00125 0.5
0.0880666 0.0002775 0.0025 0.5
0.0880666 0.0002775 -0.0025 0.5
0.0769707 0.0429959 0.0025 0.5
0.0769707 0.0429959 -0.0025 0.5
0.0883444 0.0002775 0 0.5
0.0883444 0.00111 0.0025 0.5
0.0883444 0.00111 -0.0025 0.5
0.0770317 0.04329 0.0025 0.5
0.0770317 0.04329 -0.0025 0.5
0.0883444 0.00222 0.0025 0.5
0.0883444 0.00222 -0.0025 0.5
0.0883444 0.00333 0.0025 0.5
0.0883444 0.00333 -0.0025 0.5
0.0883444 0.00444 0.0025 0.5
0.0883444 0.00444 -0.0025 0.5
0.0769731 0.0435865 0.0025 0.5
0.0769731 0.0435865 -0.0025 0.5
0.0883444 0.00555 0.0025 0.5
0.0883444 0.00555 -0.0025 0.5
0.0769733 0.043845 1.27606e-20 0.5
0.0886222 0.000555 0 0.5
0.0883444 0.00666 0.0025 0.5
0.0883444 0.00666 -0.0025 0.5
0.0886222 0.0002775 -0.00125 0.5
0.0886222 0.0002775 0.00125 0.5
0.0886222 0.0008325 0.00125 0.5
0.0886222 0.0008325 -0.00125 0.5
0.0886222 0.001665 0 0.5
0.0886222 0.0002775 0.0025 0.5
0.0886222 0.0002775 -0.0025 0.5
0.0886222 0.0008325 0.0025 0.5
0.0886222 0.0008325 -0.0025 0.5
0.0886222 0.002775 0 0.5
0.0886222 0.0013875 0.0025 0.5
0.0886222 0.0013875 -0.0025 0.5
0.0886222 0.0019425 0.0025 0.5
0.0886222 0.0019425 -0.0025 0.5
0.0886222 0.0024975 0.0025 0.5
0.0886222 0.0024975 -0.0025 0.5
0.0886222 0.003885 0 0.5
0.0886222 0.0030525 0.0025 0.5
0.0886222 0.0030525 -0.0025 0.5
0.0883444 0.00777 0.0025 0.5
0.0883444 0.00777 -0.0025 0.5
0.0886222 0.0036075 0.0025 0.5
0.0886222 0.0036075 -0.0025 0.5
0.0769731 0.0441035 -0.0025 0.5
0.0769731 0.0441035 0.0025 0.5
0.0886222 0.0041625 0.0025 0.5
0.0886222 0.0041625 -0.0025 0.5
0.0886222 0.004995 -1.81603e-19 0.5
0.0886222 0.0047175 0.0025 0.5
0.0886222 0.0047175 -0.0025 0.5
0.0886222 0.0052725 0.0025 0.5
0.0886222 0.0052725 -0.0025 0.5
0.0883444 0.00888 0.0025 0.5
0.0883444 0.00888 -0.0025 0.5
0.0886222 0.006105 -4.31797e-21 0.5
0.0886222 0.0058275 0.0025 0.5
0.0886222 0.0058275 -0.0025 0.5
0.0886222 0.0063825 0.0025 0.5
0.0886222 0.0063825 -0.0025 0.5
0.0886222 0.007215 3.76366e-21 0.5
0.0886222 0.0069375 -0.0025 0.5
0.0886222 0.0069375 0.0025 0.5
0.0883444 0.00999 0.0025 0.5
0.0883444 0.00999 -0.0025 0.5
0.0770316 0.0444 0.0025 0.5
0.0770316 0.0444 -0.0025 0.5
0.0886222 0.0074925 -0.0025 0.5
0.0886222 0.0074925 0.0025 0.5
0.0886222 0.008325 1.10296e-21 0.5
0.0886222 0.0080475 -0.0025 0.5
0.0886222 0.0080475 0.0025 0.5
0.0769706 0.0446941 0.0025 0.5
0.0769706 0.0446941 -0.0025 0.5
0.0886222 0.0086025 -0.0025 0.5
0.0886222 0.0086025 0.0025 0.5
0.0883444 0.0111 0.0025 0.5
0.0883444 0.0111 -0.0025 0.5
0.0886222 0.009435 1.92878e-21 0.5
0.0886222 0.0091575 0.0025 0.5
0.0886222 0.0091575 -0.0025 0.5
0.0769696 0.0449558 1.87472e-18 0.5
0.0886222 0.0097125 0.0025 0.5
0.0886222 0.0097125 -0.0025 0.5
0.0883444 0.01221 0.0025 0.5
0.0883444 0.01221 -0.0025 0.5
0.0886222 0.010545 3.88923e-21 0.5
0.0886222 0.0102675 0.0025 0.5
0.0886222 0.0102675 -0.0025 0.5
0.0769683 0.0452183 -0.0025 0.5
0.0769683 0.0452183 0.0025 0.5
0.0886222 0.0108225 0.0025 0.5
0.0886222 0.0108225 -0.0025 0.5
0.0883444 0.01332 0.0025 0.5
0.0883444 0.01332 -0.0025 0.5
0.0886222 0.0113775 0.0025 0.5
0.0886222 0.0113775 -0.0025 0.5
0.0886222 0.011655 2.78619e-21 0.5
0.0886222 0.0119325 0.0025 0.5
0.0886222 0.0119325 -0.0025 0.5
0.077026 0.04551 0.0025 0.5
0.077026 0.04551 -0.0025 0.5
0.0886222 0.0124875 -0.0025 0.5
0.0886222 0.0124875 0.0025 0.5
0.0886222 0.012765 1.81655e-19 0.5
0.0883444 0.01443 0.0025 0.5
0.0883444 0.01443 -0.0025 0.5
0.0769627 0.0457961 0.0025 0.5
0.0769627 0.0457961 -0.0025 0.5
0.0886222 0.0130425 -0.0025 0.5
0.0886222 0.0130425 0.0025 0.5
0.0886222 0.0135975 0.0025 0.5
0.0886222 0.0135975 -0.0025 0.5
0.0769607 0.0460664 -1.53729e-18 0.5
0.0886222 0.013875 0 0.5
0.0883444 0.01554 0.0025 0.5
0.0883444 0.01554 -0.0025 0.5
0.0886222 0.0141525 0.0025 0.5
0.0886222 0.0141525 -0.0025 0.5
0.0769584 0.0463381 0.0025 0.5
0.0769584 0.0463381 -0.0025 0.5
0.0886222 0.0147075 -0.0025 0.5
0.0886222 0.0147075 0.0025 0.5
0.0886222 0.014985 7.52748e-21 0.5
0.0883444 0.01665 0.0025 0.5
0.0883444 0.01665 -0.0025 0.5
0.0886222 0.0152625 -0.0025 0.5
0.0886222 0.0152625 0.0025 0.5
0.0886222 0.0158175 0.0025 0.5
0.0886222 0.0158175 -0.0025 0.5
0.0770162 0.04662 -0.0025 0.5
0.0770162 0.04662 0.0025 0.5
0.0886222 0.016095 0 0.5
0.0769503 0.0468938 -0.00126674 0.5
0.0769503 0.0468938 0.00126674 0.5
0.0883444 0.01776 0.0025 0.5
0.0883444 0.01776 -0.0025 0.5
0.0769503 0.0468938 0.0025 0.5
0.0769503 0.0468938 -0.0025 0.5
0.0886222 0.0163725 0.0025 0.5
0.0886222 0.0163725 -0.0025 0.5
0.0769477 0.047175 -2.67568e-20 0.5
0.0886222 0.0169275 0.0025 0.5
0.0886222 0.0169275 -0.0025 0.5
0.0886222 0.017205 0 0.5
0.0886222 0.0174825 0.0025 0.5
0.0886222 0.0174825 -0.0025 0.5
0.0883444 0.01887 0.0025 0.5
0.0883444 0.01887 -0.0025 0.5
0.0769442 0.0474624 -0.0012945 0.5
0.0769442 0.0474624 0.0012945 0.5
0.0769442 0.0474624 0.0025 0.5
0.0769442 0.0474624 -0.0025 0.5
0.0886222 0.0180375 0.0025 0.5
0.0886222 0.0180375 -0.0025 0.5
0.0886222 0.018315 -4.24739e-19 0.5
0.0886222 0.0185925 0.0025 0.5
0.0886222 0.0185925 -0.0025 0.5
0.0883444 0.01998 0.0025 0.5
0.0883444 0.01998 -0.0025 0.5
0.0770024 0.04773 0.0025 0.5
0.0770024 0.04773 -0.0025 0.5
0.0769343 0.0479878 -0.00133879 0.5
0.0769343 0.0479878 0.00133879 0.5
0.0886222 0.0191475 0.0025 0.5
0.0886222 0.0191475 -0.0025 0.5
0.0769343 0.0479878 0.0025 0.5
0.0769343 0.0479878 -0.0025 0.5
0.0886222 0.019425 2.54579e-19 0.5
0.0886222 0.0197025 0.0025 0.5
0.0886222 0.0197025 -0.0025 0.5
0.0769307 0.048285 1.84994e-19 0.5
0.0883444 0.02109 0.0025 0.5
0.0883444 0.02109 -0.0025 0.5
0.0886222 0.0202575 0.0025 0.5
0.0886222 0.0202575 -0.0025 0.5
0.0886222 0.020535 -4.2863e-21 0.5
0.0769262 0.0485903 -0.0013753 0.5
0.0769262 0.0485903 0.0013753 0.5
0.0769262 0.0485903 -0.0025 0.5
0.0769262 0.0485903 0.0025 0.5
0.0886222 0.0208125 0.0025 0.5
0.0886222 0.0208125 -0.0025 0.5
0.0883444 0.0222 0.0025 0.5
0.0883444 0.0222 -0.0025 0.5
0.0886222 0.0213675 0.0025 0.5
0.0886222 0.0213675 -0.0025 0.5
0.076985 0.04884 -0.0025 0.5
0.076985 0.04884 0.0025 0.5
0.0886222 0.021645 -2.44648e-21 0.5
0.0769154 0.0490789 -0.0014239 0.5
0.0769154 0.0490789 0.0014239 0.5
0.0769154 0.0490789 0.0025 0.5
0.0769154 0.0490789 -0.0025 0.5
0.0886222 0.0219225 0.0025 0.5
0.0886222 0.0219225 -0.0025 0.5
0.0883444 0.02331 0.0025 0.5
0.0883444 0.02331 -0.0025 0.5
0.0769108 0.049395 2.08897e-18 0.5
0.0886222 0.0224775 0.0025 0.5
0.0886222 0.0224775 -0.0025 0.5
0.0886222 0.022755 -2.49561e-19 0.5
0.0769054 0.0497211 -0.00146887 0.5
0.0769054 0.0497211 0.00146887 0.5
0.0886222 0.0230325 0.0025 0.5
0.0886222 0.0230325 -0.0025 0.5
0.0769054 0.0497211 -0.0025 0.5
0.0769054 0.0497211 0.0025 0.5
0.0883444 0.02442 0.0025 0.5
0.0883444 0.02442 -0.0025 0.5
0.0886222 0.0235875 0.0025 0.5
0.0886222 0.0235875 -0.0025 0.5
0.0886222 0.023865 4.33092e-19 0.5
0.0769645 0.04995 0.0025 0.5
0.0769645 0.04995 -0.0025 0.5
0.0768945 0.050168 -0.00151821 0.5
0.0768945 0.050168 0.00151821 0.5
0.0768945 0.050168 0.0025 0.5
0.0768945 0.050168 -0.0025 0.5
0.0886222 0.0241425 0.0025 0.5
0.0886222 0.0241425 -0.0025 0.5
0.076889 0.050505 -1.56054e-18 0.5
0.0883444 0.02553 0.0025 0.5
0.0883444 0.02553 -0.0025 0.5
0.0886222 0.0246975 -0.0025 0.5
0.0886222 0.0246975 0.0025 0.5
0.0886222 0.024975 1.19177e-21 0.5
0.0886222 0.0252525 0.0025 0.5
0.0886222 0.0252525 -0.0025 0.5
0.0768828 0.0508537 -0.00157081 0.5
0.0768828 0.0508537 0.00157081 0.5
0.0768828 0.0508537 0.0025 0.5
0.0768828 0.0508537 -0.0025 0.5
0.0883444 0.02664 0.0025 0.5
0.0883444 0.02664 -0.0025 0.5
0.0886222 0.0258075 0.0025 0.5
0.0886222 0.0258075 -0.0025 0.5
0.0769414 0.05106 0.0025 0.5
0.0769414 0.05106 -0.0025 0.5
0.0886222 0.026085 9.22105e-21 0.5
0.0768723 0.0512558 -0.00161789 0.5
0.0768723 0.0512558 0.00161789 0.5
0.0768723 0.0512558 0.0025 0.5
0.0768723 0.0512558 -0.0025 0.5
0.0886222 0.0263625 0.0025 0.5
0.0886222 0.0263625 -0.0025 0.5
0.076866 0.051615 1.10474e-19 0.5
0.0883444 0.02775 0.0025 0.5
0.0883444 0.02775 -0.0025 0.5
0.0886222 0.0269175 0.0025 0.5
0.0886222 0.0269175 -0.0025 0.5
0.0886222 0.027195 1.2044e-20 0.5
0.0768592 0.0519872 -0.00167678 0.5
0.0768592 0.0519872 0.00167678 0.5
0.0886222 0.0274725 0.0025 0.5
0.0886222 0.0274725 -0.0025 0.5
0.0768592 0.0519872 0.0025 0.5
0.0768592 0.0519872 -0.0025 0.5
0.0883444 0.02886 0.0025 0.5
0.0883444 0.02886 -0.0025 0.5
0.0769165 0.05217 0.0025 0.5
0.0769165 0.05217 -0.0025 0.5
0.0886222 0.0280275 0.0025 0.5
0.0886222 0.0280275 -0.0025 0.5
0.0768498 0.0523433 -0.00171934 0.5
0.0768498 0.0523433 0.00171934 0.5
0.0768498 0.0523433 0.0025 0.5
0.0768498 0.0523433 -0.0025 0.5
0.0886222 0.028305 -8.22717e-21 0.5
0.0886222 0.0285825 0.0025 0.5
0.0886222 0.0285825 -0.0025 0.5
0.0768429 0.052725 2.3258e-19 0.5
0.0886222 0.0291375 0.0025 0.5
0.0886222 0.0291375 -0.0025 0.5
0.0883444 0.02997 0.0025 0.5
0.0883444 0.02997 -0.0025 0.5
0.0886222 0.029415 -6.85063e-19 0.5
0.0768357 0.0531208 -0.00178266 0.5
0.0768357 0.0531208 0.00178266 0.5
0.0768357 0.0531208 -0.0025 0.5
0.0768357 0.0531208 0.0025 0.5
0.0886222 0.0296925 0.0025 0.5
0.0886222 0.0296925 -0.0025 0.5
0.0768906 0.05328 0.0025 0.5
0.0768906 0.05328 -0.0025 0.5
0.0768275 0.0534311 -0.00181927 0.5
0.0768275 0.0534311 0.00181927 0.5
0.0768275 0.0534311 0.0025 0.5
0.0768275 0.0534311 -0.0025 0.5
0.0886222 0.0302475 0.0025 0.5
0.0886222 0.0302475 -0.0025 0.5
0.0883444 0.03108 0.0025 0.5
0.0883444 0.03108 -0.0025 0.5
0.0886222 0.030525 6.22217e-19 0.5
0.0768203 0.053835 -7.26542e-19 0.5
0.0886222 0.0308025 0.0025 0.5
0.0886222 0.0308025 -0.0025 0.5
0.0886222 0.0313575 0.0025 0.5
0.0886222 0.0313575 -0.0025 0.5
0.0883444 0.03219 0.0025 0.5
0.0883444 0.03219 -0.0025 0.5
0.076813 0.0542535 -0.00188491 0.5
0.076813 0.0542535 0.00188491 0.5
0.076813 0.0542535 0.0025 0.5
0.076813 0.0542535 -0.0025 0.5
0.0886222 0.031635 -3.88923e-21 0.5
0.0768645 0.05439 0.0025 0.5
0.0768645 0.05439 -0.0025 0.5
0.0768062 0.0545199 -0.00191508 0.5
0.0768062 0.0545199 0.00191508 0.5
0.0768062 0.0545199 0.0025 0.5
0.0768062 0.0545199 -0.0025 0.5
0.0886222 0.0319125 0.0025 0.5
0.0886222 0.0319125 -0.0025 0.5
0.0886222 0.0324675 0.0025 0.5
0.0886222 0.0324675 -0.0025 0.5
0.0767989 0.054945 -1.35772e-18 0.5
0.0883444 0.0333 0.0025 0.5
0.0883444 0.0333 -0.0025 0.5
0.0886222 0.032745 0 0.5
0.0886222 0.0330225 0.0025 0.5
0.0886222 0.0330225 -0.0025 0.5
0.0767916 0.0553847 0.00198077 0.5
0.0767916 0.0553847 -0.00198077 0.5
0.0767916 0.0553847 0.0025 0.5
0.0767916 0.0553847 -0.0025 0.5
0.0886222 0.0335775 0.0025 0.5
0.0886222 0.0335775 -0.0025 0.5
0.0768389 0.0555 0.0025 0.5
0.0768389 0.0555 -0.0025 0.5
0.0767864 0.05561 0.00200455 0.5
0.0767864 0.05561 -0.00200455 0.5
0.0767864 0.05561 0.0025 0.5
0.0767864 0.05561 -0.0025 0.5
0.0883444 0.03441 0.0025 0.5
0.0883444 0.03441 -0.0025 0.5
0.0886222 0.033855 0 0.5
0.0886222 0.0341325 0.0025 0.5
0.0886222 0.0341325 -0.0025 0.5
0.0767791 0.056055 3.30105e-18 0.5
0.0886222 0.0346875 0.0025 0.5
0.0886222 0.0346875 -0.0025 0.5
0.0883444 0.03552 0.0025 0.5
0.0883444 0.03552 -0.0025 0.5
0.0886222 0.034965 -3.39789e-22 0.5
0.0767723 0.056514 -0.00206774 0.5
0.0767723 0.056514 0.00206774 0.5
0.0767723 0.056514 0.0025 0.5
0.0767723 0.056514 -0.0025 0.5
0.0886222 0.0352425 0.0025 0.5
0.0886222 0.0352425 -0.0025 0.5
0.0768147 0.05661 0.0025 0.5
0.0768147 0.05661 -0.0025 0.5
0.0767684 0.056702 -0.00208559 0.5
0.0767684 0.056702 0.00208559 0.5
0.0767684 0.056702 0.0025 0.5
0.0767684 0.056702 -0.0025 0.5
0.0886222 0.0357975 0.0025 0.5
0.0886222 0.0357975 -0.0025 0.5
0.0883444 0.03663 0.0025 0.5
0.0883444 0.03663 -0.0025 0.5
0.0886222 0.036075 1.76716e-21 0.5
0.0767616 0.057165 -3.55695e-19 0.5
0.0886222 0.0363525 0.0025 0.5
0.0886222 0.0363525 -0.0025 0.5
0.0767554 0.0576409 -0.00214384 0.5
0.0767554 0.0576409 0.00214384 0.5
0.0767554 0.0576409 0.0025 0.5
0.0767554 0.0576409 -0.0025 0.5
0.0886222 0.0369075 0.0025 0.5
0.0886222 0.0369075 -0.0025 0.5
0.0767927 0.05772 0.0025 0.5
0.0767927 0.05772 -0.0025 0.5
0.0883444 0.03774 0.0025 0.5
0.0883444 0.03774 -0.0025 0.5
0.0767526 0.0577962 0.00215665 0.5
0.0767526 0.0577962 -0.00215665 0.5
0.0886222 0.037185 -6.78638e-19 0.5
0.0767526 0.0577962 0.0025 0.5
0.0767526 0.0577962 -0.0025 0.5
0.0886222 0.0374625 0.0025 0.5
0.0886222 0.0374625 -0.0025 0.5
0.0767464 0.058275 -1.01618e-18 0.5
0.0886222 0.0380175 -0.0025 0.5
0.0886222 0.0380175 0.0025 0.5
0.0883444 0.03885 0.0025 0.5
0.0883444 0.03885 -0.0025 0.5
0.0886222 0.038295 1.29532e-18 0.5
0.0767411 0.0587652 -0.00220809 0.5
0.0767411 0.0587652 0.00220809 0.5
0.0886222 0.0385725 -0.0025 0.5
0.0886222 0.0385725 0.0025 0.5
0.0767411 0.0587652 0.0025 0.5
0.0767411 0.0587652 -0.0025 0.5
0.0767734 0.05883 0.0025 0.5
0.0767734 0.05883 -0.0025 0.5
0.0767392 0.0588928 -0.00221695 0.5
0.0767392 0.0588928 0.00221695 0.5
0.0767392 0.0588928 0.0025 0.5
0.0767392 0.0588928 -0.0025 0.5
0.0886222 0.0391275 -0.0025 0.5
0.0886222 0.0391275 0.0025 0.5
0.0886222 0.039405 -6.22645e-19 0.5
0.0883444 0.03996 0.0025 0.5
0.0883444 0.03996 -0.0025 0.5
0.0767339 0.059385 1.37903e-18 0.5
0.0886222 0.0396825 -0.0025 0.5
0.0886222 0.0396825 0.0025 0.5
0.0767295 0.0598868 -0.00226053 0.5
0.0767295 0.0598868 0.00226053 0.5
0.0886222 0.0402375 0.0025 0.5
0.0886222 0.0402375 -0.0025 0.5
0.0767295 0.0598868 0.0025 0.5
0.0767295 0.0598868 -0.0025 0.5
0.0767572 0.05994 0.0025 0.5
0.0767572 0.05994 -0.0025 0.5
0.0767282 0.0599918 0.00226645 0.5
0.0767282 0.0599918 -0.00226645 0.5
0.0767282 0.0599918 0.0025 0.5
0.0767282 0.0599918 -0.0025 0.5
0.0886222 0.040515 -2.0701e-21 0.5
0.0883444 0.04107 0.0025 0.5
0.0883444 0.04107 -0.0025 0.5
0.0886222 0.0407925 0.0025 0.5
0.0886222 0.0407925 -0.0025 0.5
0.0767238 0.060495 -3.58695e-18 0.5
0.0886222 0.0413475 0.0025 0.5
0.0886222 0.0413475 -0.0025 0.5
0.0886222 0.041625 0 0.5
0.0883444 0.04218 0.0025 0.5
0.0883444 0.04218 -0.0025 0.5
0.0767202 0.0610061 0.00230239 0.5
0.0767202 0.0610061 -0.00230239 0.5
0.0767202 0.0610061 0.0025 0.5
0.0767202 0.0610061 -0.0025 0.5
0.0886222 0.0419025 0.0025 0.5
0.0886222 0.0419025 -0.0025 0.5
0.0767439 0.06105 0.0025 0.5
0.0767439 0.06105 -0.0025 0.5
0.0767193 0.061093 0.00230638 0.5
0.0767193 0.061093 -0.00230638 0.5
0.0767193 0.061093 0.0025 0.5
0.0767193 0.061093 -0.0025 0.5
0.0886222 0.0424575 0.0025 0.5
0.0886222 0.0424575 -0.0025 0.5
0.0886222 0.042735 0 0.5
0.0767157 0.061605 4.09713e-18 0.5
0.0883444 0.04329 0.0025 0.5
0.0883444 0.04329 -0.0025 0.5
0.0886222 0.0430125 0.0025 0.5
0.0886222 0.0430125 -0.0025 0.5
0.0767124 0.0621239 -0.00233719 0.5
0.0767124 0.0621239 0.00233719 0.5
0.0767124 0.0621239 0.0025 0.5
0.0767124 0.0621239 -0.0025 0.5
0.0767326 0.06216 0.0025 0.5
0.0767326 0.06216 -0.0025 0.5
0.0886222 0.0435675 0.0025 0.5
0.0886222 0.0435675 -0.0025 0.5
0.0767118 0.0621955 0.00234015 0.5
0.0767118 0.0621955 -0.00234015 0.5
0.0767118 0.0621955 0.0025 0.5
0.0767118 0.0621955 -0.0025 0.5
0.0886222 0.043845 0 0.5
0.0883444 0.0444 0.0025 0.5
0.0883444 0.0444 -0.0025 0.5
0.0886222 0.0441225 0.0025 0.5
0.0886222 0.0441225 -0.0025 0.5
0.0767085 0.062715 1.33533e-18 0.5
0.0886222 0.0446775 0.0025 0.5
0.0886222 0.0446775 -0.0025 0.5
0.0886222 0.044955 0 0.5
0.0883444 0.04551 0.0025 0.5
0.0883444 0.04551 -0.0025 0.5
0.0767045 0.0632417 -0.00237268 0.5
0.0767045 0.0632417 0.00237268 0.5
0.0767045 0.0632417 0.0025 0.5
0.0767045 0.0632417 -0.0025 0.5
0.0767206 0.06327 0.0025 0.5
0.0767206 0.06327 -0.0025 0.5
0.0767039 0.0632977 -0.00237542 0.5
0.0767039 0.0632977 0.00237542 0.5
0.0767039 0.0632977 0.0025 0.5
0.0767039 0.0632977 -0.0025 0.5
0.0886222 0.0452325 0.0025 0.5
0.0886222 0.0452325 -0.0025 0.5
0.0767 0.063825 1.47096e-18 0.5
0.0886222 0.0457875 0.0025 0.5
0.0886222 0.0457875 -0.0025 0.5
0.0886222 0.046065 -6.78387e-19 0.5
0.0883444 0.04662 0.0025 0.5
0.0883444 0.04662 -0.0025 0.5
0.0886222 0.0463425 0.0025 0.5
0.0886222 0.0463425 -0.0025 0.5
0.0766915 0.0643647 -0.00243125 0.5
0.0766915 0.0643647 0.00243125 0.5
0.0766915 0.0643647 -0.0025 0.5
0.0766915 0.0643647 0.0025 0.5
0.0767003 0.06438 0.0025 0.5
0.0767003 0.06438 -0.0025 0.5
0.0766909 0.0643946 -0.00243427 0.5
0.0766909 0.0643946 0.00243427 0.5
0.0766909 0.0643946 0.0025 0.5
0.0766909 0.0643946 -0.0025 0.5
0.0886222 0.0468975 0.0025 0.5
0.0886222 0.0468975 -0.0025 0.5
0.0886222 0.047175 6.78675e-19 0.5
0.0883444 0.04773 0.0025 0.5
0.0883444 0.04773 -0.0025 0.5
0.0766825 0.064935 -2.55e-18 0.5
0.0886222 0.0474525 0.0025 0.5
0.0886222 0.0474525 -0.0025 0.5
0.0886222 0.0480075 0.0025 0.5
0.0886222 0.0480075 -0.0025 0.5