0 	0 	0 	0
0.000446734 	0.00011634 	0.00287521 	-1.02505e-25
0.000893467 	0.000232181 	0.00573014 	-2.01745e-25
0.0013402 	0.00030677 	0.00788019 	-2.19654e-25
0.00178693 	0.000343127 	0.00937263 	-1.64203e-25
0.00223367 	0.000375997 	0.010836 	-1.06848e-25
0.0026804 	0.00034682 	0.0115548 	-6.30594e-26
0.00312714 	0.000317642 	0.0122737 	-1.92709e-26
0.00357387 	0.000280451 	0.0128346 	-1.56172e-26
0.0040206 	0.000238252 	0.0132651 	-4.59365e-26
0.00446734 	0.000195535 	0.0136874 	-7.82845e-26
0.00491407 	0.000156096 	0.0139556 	-1.15659e-25
0.0053608 	0.000116657 	0.0142237 	-1.53034e-25
0.00580754 	7.94212e-05 	0.0144053 	-1.56763e-25
0.00625427 	4.47824e-05 	0.0145195 	-1.35587e-25
0.00670101 	1.00671e-05 	0.0146229 	-1.11663e-25
0.00714774 	-2.03931e-05 	0.0145961 	-7.4288e-26
0.00759447 	-5.08533e-05 	0.0145693 	-3.69134e-26
0.00804121 	-7.92397e-05 	0.0144748 	-1.71672e-26
0.00848794 	-0.00010568 	0.0143333 	-8.024e-27
0.00893467 	-0.0001319 	0.0141829 	0
0.00938141 	-0.000154197 	0.0139551 	0
0.00982814 	-0.000176493 	0.0137272 	0
0.0102749 	-0.000196308 	0.0134611 	0
0.0107216 	-0.000214368 	0.0131711 	0
0.0111683 	-0.000231949 	0.0128757 	0
0.0116151 	-0.000245838 	0.0125429 	0
0.0120618 	-0.000259727 	0.0122101 	0
0.0125085 	-0.000271092 	0.0118599 	0
0.0129553 	-0.000281049 	0.0114999 	0
0.013402 	-0.000290403 	0.0111377 	0
0.0138487 	-0.00029678 	0.0107634 	0
0.0142955 	-0.000303157 	0.0103891 	0
0.0147422 	-0.000307324 	0.0100123 	0
0.0151889 	-0.000310524 	0.00963436 	0
0.0156357 	-0.000313105 	0.00925723 	0
0.0160824 	-0.000313548 	0.0088842 	0
0.0165291 	-0.00031399 	0.00851117 	0
0.0169759 	-0.000312662 	0.00814618 	0
0.0174226 	-0.000310762 	0.00778486 	0
0.0178693 	-0.000308297 	0.0074269 	0
0.0183161 	-0.000304458 	0.00708238 	0
0.0187628 	-0.000300619 	0.00673787 	0
0.0192095 	-0.000295482 	0.00640791 	0
0.0196563 	-0.000290084 	0.00608383 	0
0.020103 	-0.000284221 	0.00576489 	0
0.0205497 	-0.000277614 	0.00546362 	0
0.0209965 	-0.000271007 	0.00516234 	0
0.0214432 	-0.000263548 	0.00487885 	0
0.0218899 	-0.000256048 	0.00460168 	0
0.0223367 	-0.000248204 	0.00433065 	0
0.0227834 	-0.000240089 	0.00407797 	0
0.0232302 	-0.000231973 	0.00382528 	0
0.0236769 	-0.000223388 	0.00359101 	0
0.0241236 	-0.000214895 	0.00336244 	0
0.0245704 	-0.000206181 	0.00314025 	0
0.0250171 	-0.000197508 	0.0029348 	0
0.0254638 	-0.000188835 	0.00272936 	0
0.0259106 	-0.000179986 	0.00254094 	0
0.0263573 	-0.000171291 	0.00235709 	0
0.026804 	-0.000162482 	0.00217917 	0
0.0272508 	-0.000153885 	0.00201501 	0
0.0276975 	-0.000145287 	0.00185084 	0
0.0281442 	-0.00013671 	0.00170086 	0
0.028591 	-0.000128293 	0.00155413 	0
0.0290377 	-0.000119843 	0.00141228 	0
0.0294844 	-0.000111655 	0.00128049 	0
0.0299312 	-0.000103467 	0.0011487 	0
0.0303779 	-9.54032e-05 	0.0010272 	0
0.0308246 	-8.74677e-05 	0.000907678 	0
0.0312714 	-7.95536e-05 	0.000791488 	0
0.0317181 	-7.18711e-05 	0.000681416 	0
0.0321648 	-6.41886e-05 	0.000571344 	0
0.0326116 	-5.66629e-05 	0.000466955 	0
0.0330583 	-4.92152e-05 	0.000363439 	0
0.033505 	-4.18189e-05 	0.000261305 	0
0.0339518 	-3.45722e-05 	0.000161395 	0
0.0343985 	-2.73255e-05 	6.14849e-05 	0
0.0348452 	-2.02178e-05 	-3.78371e-05 	0
0.035292 	-1.313e-05 	-0.000137118 	0
0.0357387 	-6.11085e-06 	-0.000237309 	0
0.0361854 	8.5489e-07 	-0.000338939 	0
0.0366322 	7.82063e-06 	-0.000440569 	0
0.0370789 	1.46594e-05 	-0.000547006 	0
0.0375256 	2.15317e-05 	-0.000653936 	0
0.0379724 	2.83068e-05 	-0.000764323 	-1.1154e-28
0.0384191 	3.50983e-05 	-0.000879455 	-3.88596e-28
0.0388658 	4.18897e-05 	-0.000994588 	-6.65651e-28
0.0393126 	4.85092e-05 	-0.00112002 	-9.39518e-28
0.0397593 	5.52063e-05 	-0.00124618 	-1.22666e-27
0.040206 	6.17404e-05 	-0.00137847 	-1.67819e-27
0.0406528 	6.83052e-05 	-0.00151834 	-2.3799e-27
0.0410995 	7.48699e-05 	-0.00165821 	-3.0816e-27
0.0415462 	8.11201e-05 	-0.00181369 	-3.95656e-27
0.041993 	8.74851e-05 	-0.0019698 	-4.68935e-27
0.0424397 	9.35672e-05 	-0.0021347 	-4.62206e-27
0.0428864 	9.96304e-05 	-0.00230934 	-3.64329e-27
0.0433332 	0.000105656 	-0.00248412 	-2.68393e-27
0.0437799 	0.000111166 	-0.00267891 	-1.50705e-27
0.0442266 	0.000116788 	-0.00287409 	-4.87112e-28
0.0446734 	0.000121931 	-0.00308036 	4.5155e-28
0.0451201 	0.000126932 	-0.0032977 	1.39703e-27
0.0455668 	0.000131779 	-0.0035155 	2.44973e-27
0.0460136 	0.000135901 	-0.003756 	3.29601e-27
0.0464603 	0.000140061 	-0.00399666 	4.12119e-27
0.046907 	0.000143451 	-0.00424988 	3.99791e-27
0.0473538 	0.000146506 	-0.00451443 	3.05243e-27
0.0478005 	0.000149315 	-0.00477991 	2.00321e-27
0.0482472 	0.000150963 	-0.00506821 	1.17803e-27
0.048694 	0.000152611 	-0.00535652 	3.52841e-28
0.0491407 	0.000153101 	-0.00565743 	0
0.0495874 	0.000152999 	-0.00596854 	0
0.0500342 	0.00015257 	-0.00628103 	3.46834e-29
0.0504809 	0.000150338 	-0.00661299 	8.9982e-28
0.0509276 	0.000148106 	-0.00694496 	1.76496e-27
0.0513744 	0.000144227 	-0.00728723 	3.38495e-27
0.0518211 	0.000139455 	-0.00763695 	5.40562e-27
0.0522678 	0.000134248 	-0.00798797 	7.35505e-27
0.0527146 	0.000126499 	-0.008351 	6.48991e-27
0.0531613 	0.000118749 	-0.00871403 	5.62478e-27
0.053608 	0.000108787 	-0.0090816 	3.76873e-27
0.0540548 	9.76072e-05 	-0.00945195 	1.74806e-27
0.0545015 	8.58613e-05 	-0.00982242 	0
0.0549482 	7.0789e-05 	-0.0101923 	0
0.055395 	5.57167e-05 	-0.0105622 	0
0.0558417 	3.78277e-05 	-0.0109259 	0
0.0562884 	1.83992e-05 	-0.0112856 	0
0.0567352 	-1.74154e-06 	-0.0116426 	0
0.0571819 	-2.59774e-05 	-0.0119803 	0
0.0576286 	-5.02132e-05 	-0.012318 	0
0.0580754 	-7.78339e-05 	-0.0126326 	0
0.0585221 	-0.000107278 	-0.0129343 	0
0.0589688 	-0.000137555 	-0.0132278 	0
0.0594156 	-0.000172504 	-0.0134766 	0
0.0598623 	-0.000207454 	-0.0137253 	0
0.060309 	-0.000246082 	-0.0139247 	0
0.0607558 	-0.000286683 	-0.0140996 	0
0.0612025 	-0.000328134 	-0.0142564 	0
0.0616492 	-0.000374472 	-0.014332 	0
0.062096 	-0.000420811 	-0.0144077 	0
0.0625427 	-0.00047123 	-0.0143953 	0
0.0629894 	-0.000523891 	-0.0143446 	0
0.0634362 	-0.000577757 	-0.0142632 	0
0.0638829 	-0.000638312 	-0.0140671 	0
0.0643296 	-0.000698867 	-0.013871 	0
0.0647764 	-0.000766296 	-0.0135731 	0
0.0652231 	-0.000837134 	-0.0132363 	0
0.0656698 	-0.000913769 	-0.0128657 	0
0.0661166 	-0.00101327 	-0.012383 	0
0.0665633 	-0.00111277 	-0.0119003 	0
0.0670101 	-0.00119853 	-0.0111246 	0
0.0674568 	-0.00127887 	-0.010245 	0
0.0679035 	-0.00128146 	-0.00911499 	0
0.0683503 	-0.00105129 	-0.00726946 	0
0.068797 	-0.00082112 	-0.00542393 	0
0.0692437 	-0.000541783 	-0.00370643 	0
0.0696905 	-0.00026382 	-0.00207824 	0
0.0701372 	-6.23191e-05 	-0.000829037 	0
0.0705839 	-3.37224e-05 	-0.000448566 	0
0.0710307 	-5.12577e-06 	-6.80945e-05 	0
0.0714774 	-7.7413e-08 	-4.88823e-07 	0
0.0719241 	-1.11983e-07 	-4.44142e-07 	0
0.0723709 	-1.33707e-07 	-4.08675e-07 	0
0.0728176 	-1.29804e-07 	-3.92602e-07 	0
0.0732643 	-1.25902e-07 	-3.76528e-07 	0
0.0737111 	-1.19795e-07 	-3.67374e-07 	0
0.0741578 	-1.13456e-07 	-3.59687e-07 	0
0.0746045 	-1.06968e-07 	-3.53934e-07 	-4.17707e-29
0.0750513 	-1.00592e-07 	-3.51878e-07 	-1.74338e-28
0.075498 	-9.42168e-08 	-3.49822e-07 	-3.06906e-28
0.0759447 	-8.83492e-08 	-3.50915e-07 	-4.60064e-28
0.0763915 	-8.26746e-08 	-3.52522e-07 	-5.95974e-28
0.0768382 	-7.72344e-08 	-3.55042e-07 	-6.35085e-28
0.0772849 	-7.23631e-08 	-3.59088e-07 	-5.02518e-28
0.0777317 	-6.74919e-08 	-3.63134e-07 	-3.69951e-28
0.0781784 	-6.32051e-08 	-3.68693e-07 	-2.16109e-28
0.0786251 	-5.90459e-08 	-3.74441e-07 	-8.01991e-29
0.0790719 	-5.50836e-08 	-3.80693e-07 	0
0.0795186 	-5.15043e-08 	-3.87698e-07 	0
0.0799653 	-4.79249e-08 	-3.94703e-07 	0
0.0804121 	-4.47341e-08 	-4.02602e-07 	0
0.0808588 	-4.16102e-08 	-4.10587e-07 	0
0.0813055 	-3.86135e-08 	-4.18914e-07 	-1.35333e-28
0.0817523 	-3.58404e-08 	-4.27705e-07 	-4.82262e-28
0.082199 	-3.30672e-08 	-4.36495e-07 	-8.2919e-28
0.0826457 	-3.05242e-08 	-4.45933e-07 	-1.20848e-27
0.0830925 	-2.8016e-08 	-4.55417e-07 	-1.57428e-27
0.0835392 	-2.55797e-08 	-4.65176e-07 	-1.4694e-27
0.0839859 	-2.32665e-08 	-4.75278e-07 	-7.36677e-28
0.0844327 	-2.09532e-08 	-4.8538e-07 	-3.95511e-30
0.0848794 	-1.87571e-08 	-4.96027e-07 	7.99948e-28
0.0853261 	-1.65802e-08 	-5.06699e-07 	1.5726e-27
0.0857729 	-1.44314e-08 	-5.17622e-07 	1.80269e-27
0.0862196 	-1.23407e-08 	-5.28833e-07 	1.4169e-27
0.0866663 	-1.02499e-08 	-5.40044e-07 	1.0311e-27
0.0871131 	-8.18841e-09 	-5.51751e-07 	6.06247e-28
0.0875598 	-6.13919e-09 	-5.63471e-07 	1.99395e-28
0.0880065 	-4.08367e-09 	-4.63265e-07 	0
0.0884533 	-2.04469e-09 	-2.34309e-07 	0
0.0889 	0 	0 	0
