0 	0 	0 	0
0.000446734 	0.000250099 	0.00942638 	0
0.000893467 	0.000193094 	0.0146229 	-4.39894e-27
0.0013402 	4.91986e-06 	0.0174884 	-7.76091e-27
0.00178693 	-0.000307045 	0.0191505 	-8.35967e-26
0.00223367 	-0.000625189 	0.0200606 	-1.98327e-25
0.0026804 	-0.00100794 	0.0207946 	-2.81087e-25
0.00312714 	-0.0013453 	0.0213005 	-2.80438e-25
0.00357387 	-0.00171652 	0.0217095 	-2.39218e-25
0.0040206 	-0.00203607 	0.0218379 	-2.55312e-26
0.00446734 	-0.00236456 	0.0218831 	2.30117e-25
0.00491407 	-0.00267002 	0.0216582 	3.60766e-25
0.0053608 	-0.00295874 	0.0213251 	5.65805e-25
0.00580754 	-0.00324776 	0.020813 	5.09395e-25
0.00625427 	-0.00350189 	0.0201779 	2.00554e-25
0.00670101 	-0.00377171 	0.0194613 	1.57814e-26
0.00714774 	-0.00399968 	0.0186129 	-1.1431e-25
0.00759447 	-0.00424197 	0.0177424 	-2.55679e-25
0.00804121 	-0.00445609 	0.0167789 	-9.05699e-26
0.00848794 	-0.00467492 	0.0158033 	-1.4333e-26
0.00893467 	-0.00487684 	0.0147664 	-1.33916e-26
0.00938141 	-0.00507292 	0.0137153 	-2.349e-25
0.00982814 	-0.00526346 	0.0126336 	-2.21846e-25
0.0102749 	-0.00543999 	0.0115327 	-4.92698e-25
0.0107216 	-0.00561955 	0.010426 	-5.59574e-25
0.0111683 	-0.00578216 	0.00929891 	-2.97332e-25
0.0116151 	-0.00594892 	0.00817867 	-3.04306e-25
0.0120618 	-0.00610581 	0.00704747 	-7.99904e-26
0.0125085 	-0.00626267 	0.00592407 	-2.18997e-26
0.0129553 	-0.00641568 	0.00479638 	3.29563e-26
0.013402 	-0.00656508 	0.00367489 	0
0.0138487 	-0.00671441 	0.00255353 	1.88269e-26
0.0142955 	-0.0068586 	0.00143514 	0
0.0147422 	-0.00700516 	0.000319315 	2.19952e-27
0.0151889 	-0.00714787 	-0.000795999 	6.90053e-27
0.0156357 	-0.00729162 	-0.00190774 	0
0.0160824 	-0.0074343 	-0.00302012 	0
0.0165291 	-0.00757594 	-0.00412909 	0
0.0169759 	-0.00771581 	-0.00523809 	0
0.0174226 	-0.00785499 	-0.00634535 	-3.2136e-26
0.0178693 	-0.00798896 	-0.00744797 	-1.56717e-25
0.0183161 	-0.0081238 	-0.0085516 	-3.45591e-25
0.0187628 	-0.0082485 	-0.00964167 	-4.34017e-25
0.0192095 	-0.00837297 	-0.0107309 	-4.26838e-25
0.0196563 	-0.00848666 	-0.0118013 	-3.42535e-25
0.020103 	-0.00859293 	-0.0128583 	-1.83694e-25
0.0205497 	-0.00869334 	-0.0138966 	-3.76746e-26
0.0209965 	-0.00877271 	-0.0148984 	-1.6828e-26
0.0214432 	-0.00885744 	-0.0158867 	0
0.0218899 	-0.00890469 	-0.0168067 	0
0.0223367 	-0.00896282 	-0.0177139 	0
0.0227834 	-0.00896554 	-0.0185109 	0
0.0232302 	-0.00897445 	-0.0192741 	0
0.0236769 	-0.00892918 	-0.0199117 	0
0.0241236 	-0.00885953 	-0.0204438 	0
0.0245704 	-0.00876647 	-0.0208746 	0
0.0250171 	-0.008608 	-0.0211223 	0
0.0254638 	-0.008468 	-0.0212943 	0
0.0259106 	-0.00823623 	-0.0212311 	0
0.0263573 	-0.00803631 	-0.0210812 	0
0.026804 	-0.00773621 	-0.0206467 	0
0.0272508 	-0.00748399 	-0.0201067 	0
0.0276975 	-0.00705894 	-0.0191276 	0
0.0281442 	-0.00667426 	-0.017867 	-2.33609e-27
0.028591 	-0.00602134 	-0.0160926 	0
0.0290377 	-0.00495602 	-0.0135968 	-1.72537e-26
0.0294844 	-0.0041651 	-0.010733 	0
0.0299312 	-0.00232582 	-0.00693828 	-1.15792e-26
0.0303779 	-0.000726417 	-0.00274327 	0
0.0308246 	-0.000115046 	-0.000986225 	8.97233e-30
0.0312714 	-2.40239e-05 	-0.000211695 	1.45933e-30
0.0317181 	1.7602e-07 	-1.70342e-06 	6.33295e-31
0.0321648 	-1.91899e-07 	-1.067e-06 	9.79837e-30
0.0326116 	-1.56427e-07 	-8.0408e-07 	0
0.0330583 	-4.38554e-07 	-5.58695e-07 	6.12946e-29
0.033505 	-4.10259e-07 	-4.90514e-07 	0
0.0339518 	-4.43413e-07 	-4.00672e-07 	6.39532e-29
0.0343985 	-4.40743e-07 	-3.71125e-07 	0
0.0348452 	-4.28987e-07 	-3.38233e-07 	0
0.035292 	-4.23968e-07 	-3.21251e-07 	0
0.0357387 	-4.06168e-07 	-3.07138e-07 	0
0.0361854 	-3.94816e-07 	-2.96627e-07 	0
0.0366322 	-3.78406e-07 	-2.8935e-07 	0
0.0370789 	-3.63963e-07 	-2.82083e-07 	0
0.0375256 	-3.48959e-07 	-2.76762e-07 	0
0.0379724 	-3.34292e-07 	-2.71189e-07 	0
0.0384191 	-3.20707e-07 	-2.66295e-07 	0
0.0388658 	-3.07155e-07 	-2.6163e-07 	0
0.0393126 	-2.94736e-07 	-2.56761e-07 	0
0.0397593 	-2.82616e-07 	-2.5258e-07 	-1.12976e-29
0.040206 	-2.71275e-07 	-2.47844e-07 	-1.92439e-29
0.0406528 	-2.60586e-07 	-2.43772e-07 	0
0.0410995 	-2.50263e-07 	-2.39276e-07 	-8.52098e-29
0.0415462 	-2.40882e-07 	-2.35194e-07 	0
0.041993 	-2.31525e-07 	-2.30985e-07 	-2.94003e-30
0.0424397 	-2.2328e-07 	-2.2693e-07 	0
0.0428864 	-2.15025e-07 	-2.23021e-07 	7.15867e-29
0.0433332 	-2.07553e-07 	-2.18993e-07 	-7.11043e-30
0.0437799 	-2.00252e-07 	-2.15357e-07 	-6.68563e-29
0.0442266 	-1.93467e-07 	-2.11447e-07 	-6.70738e-29
0.0446734 	-1.87007e-07 	-2.07975e-07 	-1.30177e-28
0.0451201 	-1.80823e-07 	-2.04257e-07 	-1.91022e-28
0.0455668 	-1.75112e-07 	-2.00868e-07 	-9.0404e-29
0.0460136 	-1.69451e-07 	-1.97385e-07 	-1.10801e-28
0.0464603 	-1.64385e-07 	-1.94102e-07 	-3.97265e-29
0.046907 	-1.59301e-07 	-1.90871e-07 	0
0.0473538 	-1.5468e-07 	-1.8767e-07 	0
0.0478005 	-1.50107e-07 	-1.84669e-07 	0
0.0482472 	-1.45862e-07 	-1.81577e-07 	0
0.048694 	-1.41739e-07 	-1.78758e-07 	0
0.0491407 	-1.37817e-07 	-1.75811e-07 	0
0.0495874 	-1.34111e-07 	-1.73097e-07 	0
0.0500342 	-1.30464e-07 	-1.70325e-07 	0
0.0504809 	-1.27119e-07 	-1.67721e-07 	0
0.0509276 	-1.23768e-07 	-1.6513e-07 	0
0.0513744 	-1.20688e-07 	-1.62613e-07 	0
0.0518211 	-1.17615e-07 	-1.60197e-07 	0
0.0522678 	-1.1475e-07 	-1.57764e-07 	0
0.0527146 	-1.11922e-07 	-1.55499e-07 	0
0.0531613 	-1.0924e-07 	-1.53171e-07 	0
0.053608 	-1.06653e-07 	-1.51e-07 	0
0.0540548 	-1.04122e-07 	-1.48795e-07 	0
0.0545015 	-1.01748e-07 	-1.46716e-07 	0
0.0549482 	-9.93736e-08 	-1.44637e-07 	0
0.055395 	-9.71656e-08 	-1.42634e-07 	0
0.0558417 	-9.49515e-08 	-1.40683e-07 	0
0.0562884 	-9.28734e-08 	-1.38743e-07 	0
0.0567352 	-9.08008e-08 	-1.36907e-07 	0
0.0571819 	-8.88306e-08 	-1.35045e-07 	0
0.0576286 	-8.69034e-08 	-1.33289e-07 	0
0.0580754 	-8.50236e-08 	-1.31512e-07 	0
0.0585221 	-8.3228e-08 	-1.29829e-07 	0
0.0589688 	-8.14369e-08 	-1.2814e-07 	0
0.0594156 	-7.9751e-08 	-1.26521e-07 	0
0.0598623 	-7.8057e-08 	-1.24926e-07 	0
0.060309 	-7.6454e-08 	-1.23356e-07 	0
0.0607558 	-7.48471e-08 	-1.21849e-07 	0
0.0612025 	-7.33135e-08 	-1.20336e-07 	0
0.0616492 	-7.17972e-08 	-1.18896e-07 	0
0.062096 	-7.03216e-08 	-1.17443e-07 	0
0.0625427 	-6.88918e-08 	-1.16061e-07 	0
0.0629894 	-6.74686e-08 	-1.14672e-07 	0
0.0634362 	-6.61152e-08 	-1.13345e-07 	0
0.0638829 	-6.47544e-08 	-1.12028e-07 	0
0.0643296 	-6.34568e-08 	-1.10739e-07 	0
0.0647764 	-6.21528e-08 	-1.0949e-07 	0
0.0652231 	-6.0903e-08 	-1.08244e-07 	0
0.0656698 	-5.96576e-08 	-1.07051e-07 	0
0.0661166 	-5.84476e-08 	-1.05852e-07 	0
0.0665633 	-5.72621e-08 	-1.04707e-07 	0
0.0670101 	-5.60855e-08 	-1.03555e-07 	0
0.0674568 	-5.49548e-08 	-1.02456e-07 	0
0.0679035 	-5.38193e-08 	-1.0136e-07 	0
0.0683503 	-5.27294e-08 	-1.00294e-07 	0
0.068797 	-5.16325e-08 	-9.92533e-08 	0
0.0692437 	-5.05775e-08 	-9.82213e-08 	0
0.0696905 	-4.95198e-08 	-9.72284e-08 	0
0.0701372 	-4.84936e-08 	-9.6233e-08 	0
0.0705839 	-4.74794e-08 	-9.52803e-08 	0
0.0710307 	-4.64761e-08 	-9.43237e-08 	0
0.0714774 	-4.55021e-08 	-9.34099e-08 	0
0.0719241 	-4.4526e-08 	-9.24977e-08 	0
0.0723709 	-4.35837e-08 	-9.16146e-08 	0
0.0728176 	-4.2635e-08 	-9.07475e-08 	0
0.0732643 	-4.17194e-08 	-8.98927e-08 	0
0.0737111 	-4.07973e-08 	-8.90679e-08 	0
0.0741578 	-3.99035e-08 	-8.82434e-08 	0
0.0746045 	-3.9014e-08 	-8.74536e-08 	0
0.0750513 	-3.81365e-08 	-8.66618e-08 	0
0.075498 	-3.72773e-08 	-8.59062e-08 	0
0.0759447 	-3.64181e-08 	-8.51506e-08 	0
0.0763915 	-3.55844e-08 	-8.44238e-08 	0
0.0768382 	-3.47449e-08 	-8.37072e-08 	0
0.0772849 	-3.39324e-08 	-8.3005e-08 	0
0.0777317 	-3.31114e-08 	-8.23258e-08 	0
0.0781784 	-3.23152e-08 	-8.16503e-08 	0
0.0786251 	-3.15185e-08 	-8.1003e-08 	0
0.0790719 	-3.07345e-08 	-8.03555e-08 	0
0.0795186 	-2.99613e-08 	-7.97391e-08 	0
0.0799653 	-2.91896e-08 	-7.9122e-08 	0
0.0804121 	-2.84369e-08 	-7.85336e-08 	0
0.0808588 	-2.76793e-08 	-7.79511e-08 	0
0.0813055 	-2.69434e-08 	-7.7385e-08 	0
0.0817523 	-2.61989e-08 	-7.68362e-08 	0
0.082199 	-2.54757e-08 	-7.6294e-08 	0
0.0826457 	-2.47486e-08 	-7.57752e-08 	0
0.0830925 	-2.40348e-08 	-7.5258e-08 	-1.2655e-29
0.0835392 	-2.3326e-08 	-7.47679e-08 	0
0.0839859 	-2.26199e-08 	-7.42767e-08 	-3.51144e-29
0.0844327 	-2.19277e-08 	-7.38142e-08 	0
0.0848794 	-2.12315e-08 	-7.33545e-08 	-1.37169e-31
0.0853261 	-2.05523e-08 	-7.29131e-08 	0
0.0857729 	-1.9865e-08 	-7.24843e-08 	7.79633e-30
0.0862196 	-1.9196e-08 	-7.20649e-08 	8.73114e-30
0.0866663 	-1.85204e-08 	-7.16649e-08 	0
0.0871131 	-1.78584e-08 	-7.12682e-08 	1.09051e-29
0.0875598 	-1.71969e-08 	-7.08955e-08 	0
0.0880065 	-1.65394e-08 	-7.05219e-08 	0
0.0884533 	-1.58908e-08 	-7.01765e-08 	0
0.0889 	-1.52394e-08 	-6.98319e-08 	-1.13464e-29
