# f_l  POINT_DATA 1494
#  x  y  z  f_l
0.0441347 0.00111 0.0025 0.5
0.0441347 0.00111 -0.0025 0.5
0.0442075 0.001665 -2.61068e-20 0.5
0.0441255 0.00222 0.0025 0.5
0.0441255 0.00222 -0.0025 0.5
0.0442568 0.000555 -4.295e-20 0.5
0.0442181 0.00134161 -0.00145673 0.5
0.0442181 0.00134161 0.00145673 0.5
0.044214 0.00198429 0.00143825 0.5
0.044214 0.00198429 -0.00143825 0.5
0.0442459 0.000906132 0.00158168 0.5
0.0442459 0.000906132 -0.00158168 0.5
0.0442181 0.00134161 0.0025 0.5
0.0442181 0.00134161 -0.0025 0.5
0.0442322 0.00243752 -0.00152016 0.5
0.0442322 0.00243752 0.00152016 0.5
0.0442459 0.000906132 0.0025 0.5
0.0442459 0.000906132 -0.0025 0.5
0.0442389 0.002775 8.95825e-21 0.5
0.044214 0.00198429 0.0025 0.5
0.044214 0.00198429 -0.0025 0.5
0.044163 0.00333 0.0025 0.5
0.044163 0.00333 -0.0025 0.5
0.0442322 0.00243752 0.0025 0.5
0.0442322 0.00243752 -0.0025 0.5
0.0442479 0.0031281 0.00159056 0.5
0.0442479 0.0031281 -0.00159056 0.5
0.0442479 0.0031281 0.0025 0.5
0.0442479 0.0031281 -0.0025 0.5
0.044267 0.00351279 -0.0016766 0.5
0.044267 0.00351279 0.0016766 0.5
0.044276 0.003885 -1.10671e-19 0.5
0.044267 0.00351279 0.0025 0.5
0.044267 0.00351279 -0.0025 0.5
0.0442086 0.00444 0.0025 0.5
0.0442086 0.00444 -0.0025 0.5
0.0442872 0.00427736 0.00176741 0.5
0.0442872 0.00427736 -0.00176741 0.5
0.04445 0.000866543 0.0025 0.5
0.04445 0.000866543 -0.0025 0.5
0.0442872 0.00427736 0.0025 0.5
0.0442872 0.00427736 -0.0025 0.5
0.0443042 0.00458561 -0.00184409 0.5
0.0443042 0.00458561 0.00184409 0.5
0.0443152 0.004995 -4.10031e-20 0.5
0.0443042 0.00458561 0.0025 0.5
0.0443042 0.00458561 -0.0025 0.5
0.0442627 0.00555 -0.0025 0.5
0.0442627 0.00555 0.0025 0.5
0.0443302 0.00543035 0.00196106 0.5
0.0443302 0.00543035 -0.00196106 0.5
0.0443302 0.00543035 -0.0025 0.5
0.0443302 0.00543035 0.0025 0.5
0.0443422 0.00565767 0.00201498 0.5
0.0443422 0.00565767 -0.00201498 0.5
0.0443422 0.00565767 0.0025 0.5
0.0443422 0.00565767 -0.0025 0.5
0.044357 0.006105 1.25904e-19 0.5
0.0447278 0.0002775 0.0025 0.5
0.0447278 0.0002775 -0.0025 0.5
0.0443738 0.00666 0.0025 0.5
0.0443738 0.00666 -0.0025 0.5
0.0444034 0.00661343 0.00229023 0.5
0.0444034 0.00661343 -0.00229023 0.5
0.0444034 0.00661343 -0.0025 0.5
0.0444034 0.00661343 0.0025 0.5
0.0444075 0.00670249 -0.0023086 0.5
0.0444075 0.00670249 0.0023086 0.5
0.0444075 0.00670249 0.0025 0.5
0.0444075 0.00670249 -0.0025 0.5
0.0450056 0.0002775 0 0.5
0.0444591 0.007215 2.32416e-21 0.5
0.04445 0.00712456 0.0025 0.5
0.04445 0.00712456 -0.0025 0.5
0.0445091 0.00771097 -0.0022341 0.5
0.0445091 0.00771097 0.0022341 0.5
0.0445091 0.00771097 0.0025 0.5
0.0445091 0.00771097 -0.0025 0.5
0.0445329 0.00785276 -0.00212719 0.5
0.0445329 0.00785276 0.00212719 0.5
0.0445329 0.00785276 0.0025 0.5
0.0445329 0.00785276 -0.0025 0.5
0.0445592 0.00777 0.0025 0.5
0.0445592 0.00777 -0.0025 0.5
0.0452834 0.0002775 0.0025 0.5
0.0452834 0.0002775 -0.0025 0.5
0.0445866 0.008325 7.03016e-21 0.5
0.0446313 0.00869887 0.0016841 0.5
0.0446313 0.00869887 -0.0016841 0.5
0.0446313 0.00869887 0.0025 0.5
0.0446313 0.00869887 -0.0025 0.5
0.0455612 0.000555 -0.0025 0.5
0.0455612 0.000555 0.0025 0.5
0.0447257 0.00915542 -0.00125937 0.5
0.0447257 0.00915542 0.00125937 0.5
0.0447415 0.00888 0.0025 0.5
0.0447415 0.00888 -0.0025 0.5
0.0447257 0.00915542 0.0025 0.5
0.0447257 0.00915542 -0.0025 0.5
0.0447849 0.00957531 5.88376e-20 0.5
0.0447949 0.00964547 0.0025 0.5
0.0447949 0.00964547 -0.0025 0.5
0.0458391 0.0002775 0.0025 0.5
0.0458391 0.0002775 -0.0025 0.5
0.0449195 0.00999 0.0025 0.5
0.0449195 0.00999 -0.0025 0.5
0.0461169 0.0002775 0 0.5
0.0450295 0.0105374 -3.49901e-19 0.5
0.0450283 0.0105223 0.0025 0.5
0.0450283 0.0105223 -0.0025 0.5
0.0450355 0.0105748 0.0025 0.5
0.0450355 0.0105748 -0.0025 0.5
0.0463947 0.0002775 0.0025 0.5
0.0463947 0.0002775 -0.0025 0.5
0.045091 0.0111 0.0025 0.5
0.045091 0.0111 -0.0025 0.5
0.0452492 0.0114984 3.22257e-19 0.5
0.0452407 0.0114202 0.0025 0.5
0.0452407 0.0114202 -0.0025 0.5
0.0466725 0.000555 -0.0025 0.5
0.0466725 0.000555 0.0025 0.5
0.045297 0.0119461 -0.0013112 0.5
0.045297 0.0119461 0.0013112 0.5
0.045297 0.0119461 -0.0025 0.5
0.045297 0.0119461 0.0025 0.5
0.0452522 0.01221 -0.0025 0.5
0.0452522 0.01221 0.0025 0.5
0.0469503 0.0002775 0.0025 0.5
0.0469503 0.0002775 -0.0025 0.5
0.0453821 0.012389 0.0016937 0.5
0.0453821 0.012389 -0.0016937 0.5
0.0453821 0.012389 0.0025 0.5
0.0453821 0.012389 -0.0025 0.5
0.045415 0.012765 6.37861e-20 0.5
0.0472281 0.0002775 -1.94461e-21 0.5
0.0454475 0.0132064 -0.00198832 0.5
0.0454475 0.0132064 0.00198832 0.5
0.0453945 0.01332 0.0025 0.5
0.0453945 0.01332 -0.0025 0.5
0.0454475 0.0132064 0.0025 0.5
0.0454475 0.0132064 -0.0025 0.5
0.045475 0.0134062 0.00211179 0.5
0.045475 0.0134062 -0.00211179 0.5
0.045475 0.0134062 0.0025 0.5
0.045475 0.0134062 -0.0025 0.5
0.0475059 0.0002775 0.0025 0.5
0.0475059 0.0002775 -0.0025 0.5
0.0455051 0.013875 -7.59734e-21 0.5
0.0455612 0.0140027 -0.0025 0.5
0.0455612 0.0140027 0.0025 0.5
0.0477837 0.000555 -0.0025 0.5
0.0477837 0.000555 0.0025 0.5
0.045609 0.0143823 -0.00228533 0.5
0.045609 0.0143823 0.00228533 0.5
0.045609 0.0143823 0.0025 0.5
0.045609 0.0143823 -0.0025 0.5
0.045672 0.01443 0.0025 0.5
0.045672 0.01443 -0.0025 0.5
0.0456684 0.014537 -0.00201781 0.5
0.0456684 0.014537 0.00201781 0.5
0.0456684 0.014537 0.0025 0.5
0.0456684 0.014537 -0.0025 0.5
0.0480616 0.0002775 0.0025 0.5
0.0480616 0.0002775 -0.0025 0.5
0.0458302 0.0151633 2.01514e-21 0.5
0.0483394 0.0002775 0 0.5
0.0458492 0.0152524 0.0025 0.5
0.0458492 0.0152524 -0.0025 0.5
0.0460368 0.01554 0.0025 0.5
0.0460368 0.01554 -0.0025 0.5
0.0486172 0.0002775 0.0025 0.5
0.0486172 0.0002775 -0.0025 0.5
0.0462367 0.0160774 9.70479e-20 0.5
0.048895 0.000555 -0.0025 0.5
0.048895 0.000555 0.0025 0.5
0.0462222 0.0159898 -0.0025 0.5
0.0462222 0.0159898 0.0025 0.5
0.0462787 0.0162566 0.0025 0.5
0.0462787 0.0162566 -0.0025 0.5
0.0491728 0.0002775 0.0025 0.5
0.0491728 0.0002775 -0.0025 0.5
0.046315 0.01665 0.0025 0.5
0.046315 0.01665 -0.0025 0.5
0.0494506 0.0002775 0 0.5
0.0464745 0.0168478 0.00160897 0.5
0.0464745 0.0168478 -0.00160897 0.5
0.0464745 0.0168478 0.0025 0.5
0.0464745 0.0168478 -0.0025 0.5
0.0465252 0.017205 1.82566e-20 0.5
0.0497284 0.0002775 0.0025 0.5
0.0497284 0.0002775 -0.0025 0.5
0.0465865 0.0176741 -0.00211323 0.5
0.0465865 0.0176741 0.00211323 0.5
0.0465515 0.01776 0.0025 0.5
0.0465515 0.01776 -0.0025 0.5
0.0465865 0.0176741 0.0025 0.5
0.0465865 0.0176741 -0.0025 0.5
0.0466137 0.0178187 0.00223548 0.5
0.0466137 0.0178187 -0.00223548 0.5
0.0466137 0.0178187 0.0025 0.5
0.0466137 0.0178187 -0.0025 0.5
0.0500063 0.000555 -0.0025 0.5
0.0500063 0.000555 0.0025 0.5
0.0466725 0.0181183 -0.0025 0.5
0.0466725 0.0181183 0.0025 0.5
0.0466706 0.018315 2.47552e-20 0.5
0.0502841 0.0002775 0.0025 0.5
0.0502841 0.0002775 -0.0025 0.5
0.0467824 0.0187603 -0.00200564 0.5
0.0467824 0.0187603 0.00200564 0.5
0.0467824 0.0187603 0.0025 0.5
0.0467824 0.0187603 -0.0025 0.5
0.0505619 0.0002775 1.91847e-21 0.5
0.0469268 0.01887 0.0025 0.5
0.0469268 0.01887 -0.0025 0.5
0.0470542 0.0192512 -0.0025 0.5
0.0470542 0.0192512 0.0025 0.5
0.0508397 0.0002775 0.0025 0.5
0.0508397 0.0002775 -0.0025 0.5
0.0471221 0.0194234 2.46906e-20 0.5
0.0471475 0.0195055 0.0025 0.5
0.0471475 0.0195055 -0.0025 0.5
0.0511175 0.000555 -0.0025 0.5
0.0511175 0.000555 0.0025 0.5
0.0473381 0.01998 0.0025 0.5
0.0473381 0.01998 -0.0025 0.5
0.0513953 0.0002775 0.0025 0.5
0.0513953 0.0002775 -0.0025 0.5
0.0516731 0.0002775 0 0.5
0.0475357 0.0202277 0.00138408 0.5
0.0475357 0.0202277 -0.00138408 0.5
0.0475357 0.0202277 0.0025 0.5
0.0475357 0.0202277 -0.0025 0.5
0.0475973 0.020535 5.81433e-20 0.5
0.0519509 0.0002775 0.0025 0.5
0.0519509 0.0002775 -0.0025 0.5
0.0476543 0.0209607 -0.00191744 0.5
0.0476543 0.0209607 0.00191744 0.5
0.0476543 0.0209607 0.0025 0.5
0.0476543 0.0209607 -0.0025 0.5
0.0476158 0.02109 0.0025 0.5
0.0476158 0.02109 -0.0025 0.5
0.0477037 0.0211699 0.00213988 0.5
0.0477037 0.0211699 -0.00213988 0.5
0.0477037 0.0211699 -0.0025 0.5
0.0477037 0.0211699 0.0025 0.5
0.0522288 0.000555 -0.0025 0.5
0.0522288 0.000555 0.0025 0.5
0.0477539 0.021645 2.85955e-19 0.5
0.0477837 0.0215969 0.0025 0.5
0.0477837 0.0215969 -0.0025 0.5
0.0525066 0.0002775 0.0025 0.5
0.0525066 0.0002775 -0.0025 0.5
0.0478684 0.0221154 -0.00211898 0.5
0.0478684 0.0221154 0.00211898 0.5
0.0527844 0.0002775 0 0.5
0.0478684 0.0221154 0.0025 0.5
0.0478684 0.0221154 -0.0025 0.5
0.0479888 0.0222 -0.0025 0.5
0.0479888 0.0222 0.0025 0.5
0.0480624 0.0224783 0.0025 0.5
0.0480624 0.0224783 -0.0025 0.5
0.0530622 0.0002775 0.0025 0.5
0.0530622 0.0002775 -0.0025 0.5
0.0481687 0.0227517 -4.29917e-20 0.5
0.05334 0.000555 -0.0025 0.5
0.05334 0.000555 0.0025 0.5
0.0482097 0.0228845 0.0025 0.5
0.0482097 0.0228845 -0.0025 0.5
0.0536178 0.0002775 -0.0025 0.5
0.0536178 0.0002775 0.0025 0.5
0.0484365 0.02331 0.0025 0.5
0.0484365 0.02331 -0.0025 0.5
0.0538956 0.0002775 0 0.5
0.0486513 0.0235534 0.00140367 0.5
0.0486513 0.0235534 -0.00140367 0.5
0.0486513 0.0235534 0.0025 0.5
0.0486513 0.0235534 -0.0025 0.5
0.0541734 0.0002775 0.0025 0.5
0.0541734 0.0002775 -0.0025 0.5
0.0487235 0.023865 0 0.5
0.0544513 0.000555 -0.0025 0.5
0.0544513 0.000555 0.0025 0.5
0.0487827 0.0243079 -0.00199488 0.5
0.0487827 0.0243079 0.00199488 0.5
0.0487827 0.0243079 -0.0025 0.5
0.0487827 0.0243079 0.0025 0.5
0.0487463 0.02442 0.0025 0.5
0.0487463 0.02442 -0.0025 0.5
0.0488256 0.0244894 -0.00218757 0.5
0.0488256 0.0244894 0.00218757 0.5
0.0488256 0.0244894 -0.0025 0.5
0.0488256 0.0244894 0.0025 0.5
0.0547291 0.0002775 0.0025 0.5
0.0547291 0.0002775 -0.0025 0.5
0.0488768 0.024975 -6.11613e-19 0.5
0.048895 0.0248878 -0.0025 0.5
0.048895 0.0248878 0.0025 0.5
0.0550069 0.0002775 -5.58287e-21 0.5
0.0489812 0.0254439 -0.00211212 0.5
0.0489812 0.0254439 0.00211212 0.5
0.0489812 0.0254439 0.0025 0.5
0.0489812 0.0254439 -0.0025 0.5
0.0552847 0.0002775 0.0025 0.5
0.0552847 0.0002775 -0.0025 0.5
0.0491024 0.02553 0.0025 0.5
0.0491024 0.02553 -0.0025 0.5
0.0491596 0.0257943 -0.00130962 0.5
0.0491596 0.0257943 0.00130962 0.5
0.0491596 0.0257943 -0.0025 0.5
0.0491596 0.0257943 0.0025 0.5
0.0555625 0.000555 -0.0025 0.5
0.0555625 0.000555 0.0025 0.5
0.0493243 0.0262305 9.48086e-20 0.5
0.0558403 0.0002775 0.0025 0.5
0.0558403 0.0002775 -0.0025 0.5
0.0493079 0.0262276 -0.0025 0.5
0.0493079 0.0262276 0.0025 0.5
0.0561181 0.0002775 0 0.5
0.0495444 0.02664 -0.0025 0.5
0.0495444 0.02664 0.0025 0.5
0.0563959 0.0002775 0.0025 0.5
0.0563959 0.0002775 -0.0025 0.5
0.0497644 0.0268815 0.00141201 0.5
0.0497644 0.0268815 -0.00141201 0.5
0.0497644 0.0268815 0.0025 0.5
0.0497644 0.0268815 -0.0025 0.5
0.0566738 0.000555 -0.0025 0.5
0.0566738 0.000555 0.0025 0.5
0.04984 0.027195 2.05742e-20 0.5
0.0569516 0.0002775 0.0025 0.5
0.0569516 0.0002775 -0.0025 0.5
0.0498965 0.0276404 -0.0020064 0.5
0.0498965 0.0276404 0.0020064 0.5
0.0498965 0.0276404 -0.0025 0.5
0.0498965 0.0276404 0.0025 0.5
0.0498588 0.02775 0.0025 0.5
0.0498588 0.02775 -0.0025 0.5
0.0499368 0.0278193 0.00218772 0.5
0.0499368 0.0278193 -0.00218772 0.5
0.0499368 0.0278193 0.0025 0.5
0.0499368 0.0278193 -0.0025 0.5
0.0572294 0.0002775 0 0.5
0.049986 0.028305 3.25181e-21 0.5
0.0500063 0.0282869 -0.0025 0.5
0.0500063 0.0282869 0.0025 0.5
0.0575072 0.0002775 0.0025 0.5
0.0575072 0.0002775 -0.0025 0.5
0.0500752 0.0287911 -0.00218978 0.5
0.0500752 0.0287911 0.00218978 0.5
0.0500752 0.0287911 0.0025 0.5
0.0500752 0.0287911 -0.0025 0.5
0.057785 0.000555 -0.0025 0.5
0.057785 0.000555 0.0025 0.5
0.0501665 0.02886 -0.0025 0.5
0.0501665 0.02886 0.0025 0.5
0.0501622 0.0290158 0.0017983 0.5
0.0501622 0.0290158 -0.0017983 0.5
0.0501622 0.0290158 0.0025 0.5
0.0501622 0.0290158 -0.0025 0.5
0.0580628 0.0002775 0.0025 0.5
0.0580628 0.0002775 -0.0025 0.5
0.0583406 0.0002775 0 0.5
0.0503598 0.0296521 -4.21706e-19 0.5
0.0503327 0.0296439 0.0025 0.5
0.0503327 0.0296439 -0.0025 0.5
0.0586184 0.0002775 0.0025 0.5
0.0586184 0.0002775 -0.0025 0.5
0.050581 0.02997 0.0025 0.5
0.050581 0.02997 -0.0025 0.5
0.0588963 0.000555 -0.0025 0.5
0.0588963 0.000555 0.0025 0.5
0.0508243 0.0302629 0.0025 0.5
0.0508243 0.0302629 -0.0025 0.5
0.0508485 0.0303503 3.84289e-19 0.5
0.0591741 0.0002775 0.0025 0.5
0.0591741 0.0002775 -0.0025 0.5
0.0594519 0.0002775 -7.45167e-21 0.5
0.0509592 0.0309218 0.00178753 0.5
0.0509592 0.0309218 -0.00178753 0.5
0.0509592 0.0309218 0.0025 0.5
0.0509592 0.0309218 -0.0025 0.5
0.0509262 0.03108 -0.0025 0.5
0.0509262 0.03108 0.0025 0.5
0.0597297 0.0002775 0.0025 0.5
0.0597297 0.0002775 -0.0025 0.5
0.0510265 0.0311709 -0.00209063 0.5
0.0510265 0.0311709 0.00209063 0.5
0.0510265 0.0311709 -0.0025 0.5
0.0510265 0.0311709 0.0025 0.5
0.0600075 0.000555 -0.0025 0.5
0.0600075 0.000555 0.0025 0.5
0.0510818 0.031635 -1.177e-18 0.5
0.0511175 0.0318582 -0.0025 0.5
0.0511175 0.0318582 0.0025 0.5
0.0602853 0.0002775 0.0025 0.5
0.0602853 0.0002775 -0.0025 0.5
0.0511555 0.032152 -0.00232902 0.5
0.0511555 0.032152 0.00232902 0.5
0.0511555 0.032152 0.0025 0.5
0.0511555 0.032152 -0.0025 0.5
0.0512016 0.03219 -0.0025 0.5
0.0512016 0.03219 0.0025 0.5
0.0511794 0.0322518 0.00222153 0.5
0.0511794 0.0322518 -0.00222153 0.5
0.0511794 0.0322518 0.0025 0.5
0.0511794 0.0322518 -0.0025 0.5
0.0605631 0.0002775 -9.93434e-23 0.5
0.0512627 0.032745 1.70229e-18 0.5
0.0608409 0.0002775 0.0025 0.5
0.0608409 0.0002775 -0.0025 0.5
0.0513454 0.0330724 -0.0014746 0.5
0.0513454 0.0330724 0.0014746 0.5
0.0513454 0.0330724 -0.0025 0.5
0.0513454 0.0330724 0.0025 0.5
0.0611187 0.000555 -0.0025 0.5
0.0611187 0.000555 0.0025 0.5
0.0515701 0.0333 0.0025 0.5
0.0515701 0.0333 -0.0025 0.5
0.0613966 0.0002775 -0.0025 0.5
0.0613966 0.0002775 0.0025 0.5
0.0616744 0.0002775 0 0.5
0.0518208 0.0337074 0.0025 0.5
0.0518208 0.0337074 -0.0025 0.5
0.0518492 0.0338407 9.44924e-21 0.5
0.0619522 0.0002775 -0.0025 0.5
0.0619522 0.0002775 0.0025 0.5
0.0519156 0.0340972 0.0025 0.5
0.0519156 0.0340972 -0.0025 0.5
0.06223 0.000555 -0.0025 0.5
0.06223 0.000555 0.0025 0.5
0.0519207 0.03441 0.0025 0.5
0.0519207 0.03441 -0.0025 0.5
0.0520673 0.0345713 -0.00177351 0.5
0.0520673 0.0345713 0.00177351 0.5
0.0520673 0.0345713 0.0025 0.5
0.0520673 0.0345713 -0.0025 0.5
0.0625078 0.0002775 0.0025 0.5
0.0625078 0.0002775 -0.0025 0.5
0.0521216 0.034965 0 0.5
0.0627856 0.0002775 3.76374e-21 0.5
0.0630634 0.0002775 -0.0025 0.5
0.0630634 0.0002775 0.0025 0.5
0.0521672 0.0354585 -0.00222315 0.5
0.0521672 0.0354585 0.00222315 0.5
0.0521672 0.0354585 0.0025 0.5
0.0521672 0.0354585 -0.0025 0.5
0.0521351 0.03552 0.0025 0.5
0.0521351 0.03552 -0.0025 0.5
0.052185 0.0355637 0.00230323 0.5
0.052185 0.0355637 -0.00230323 0.5
0.052185 0.0355637 0.0025 0.5
0.052185 0.0355637 -0.0025 0.5
0.0633413 0.000555 -0.0025 0.5
0.0633413 0.000555 0.0025 0.5
0.0522249 0.036075 2.467e-20 0.5
0.0522287 0.0363035 -0.0025 0.5
0.0522287 0.0363035 0.0025 0.5
0.0636191 0.0002775 0.0025 0.5
0.0636191 0.0002775 -0.0025 0.5
0.0522476 0.0366112 -0.00241519 0.5
0.0522476 0.0366112 0.00241519 0.5
0.0522476 0.0366112 0.0025 0.5
0.0522476 0.0366112 -0.0025 0.5
0.0522509 0.0366521 -0.00240035 0.5
0.0522509 0.0366521 0.00240035 0.5
0.0522509 0.0366521 0.0025 0.5
0.0522509 0.0366521 -0.0025 0.5
0.0522679 0.03663 0.0025 0.5
0.0522679 0.03663 -0.0025 0.5
0.0638969 0.0002775 -5.95927e-22 0.5
0.0522752 0.037185 0 0.5
0.0641747 0.0002775 0.0025 0.5
0.0641747 0.0002775 -0.0025 0.5
0.0523667 0.0376022 -0.00187938 0.5
0.0523667 0.0376022 0.00187938 0.5
0.0644525 0.000555 -0.0025 0.5
0.0644525 0.000555 0.0025 0.5
0.0523667 0.0376022 0.0025 0.5
0.0523667 0.0376022 -0.0025 0.5
0.0525391 0.03774 0.0025 0.5
0.0525391 0.03774 -0.0025 0.5
0.0647303 0.0002775 0.0025 0.5
0.0647303 0.0002775 -0.0025 0.5
0.0650081 0.0002775 0 0.5
0.0527196 0.0382303 0.0025 0.5
0.0527196 0.0382303 -0.0025 0.5
0.052744 0.0382954 -2.21291e-22 0.5
0.052753 0.0383264 0.0025 0.5
0.052753 0.0383264 -0.0025 0.5
0.0652859 0.0002775 0.0025 0.5
0.0652859 0.0002775 -0.0025 0.5
0.0655638 0.000555 -0.0025 0.5
0.0655638 0.000555 0.0025 0.5
0.0529129 0.03885 0.0025 0.5
0.0529129 0.03885 -0.0025 0.5
0.0658416 0.0002775 0.0025 0.5
0.0658416 0.0002775 -0.0025 0.5
0.0530983 0.0390914 0.00141267 0.5
0.0530983 0.0390914 -0.00141267 0.5
0.0530983 0.0390914 0.0025 0.5
0.0530983 0.0390914 -0.0025 0.5
0.0661194 0.0002775 -1.81913e-21 0.5
0.0531545 0.039405 -1.25928e-19 0.5
0.0663972 0.0002775 0.0025 0.5
0.0663972 0.0002775 -0.0025 0.5
0.0532005 0.0398206 0.00187225 0.5
0.0532005 0.0398206 -0.00187225 0.5
0.0532005 0.0398206 0.0025 0.5
0.0532005 0.0398206 -0.0025 0.5
0.0531539 0.03996 0.0025 0.5
0.0531539 0.03996 -0.0025 0.5
0.0532468 0.0400531 -0.00208069 0.5
0.0532468 0.0400531 0.00208069 0.5
0.0532468 0.0400531 0.0025 0.5
0.0532468 0.0400531 -0.0025 0.5
0.066675 0.000555 -0.0025 0.5
0.066675 0.000555 0.0025 0.5
0.0532887 0.040515 4.2709e-20 0.5
0.0669528 0.0002775 0.0025 0.5
0.0669528 0.0002775 -0.0025 0.5
0.0672306 0.0002775 9.10876e-20 0.5
0.0533104 0.0410404 -0.00236685 0.5
0.0533104 0.0410404 0.00236685 0.5
0.0533104 0.0410404 0.0025 0.5
0.0533104 0.0410404 -0.0025 0.5
0.0532881 0.04107 0.0025 0.5
0.0532881 0.04107 -0.0025 0.5
0.0533148 0.0410952 -0.00238644 0.5
0.0533148 0.0410952 0.00238644 0.5
0.0533148 0.0410952 -0.0025 0.5
0.0533148 0.0410952 0.0025 0.5
0.0675084 0.0002775 0.0025 0.5
0.0675084 0.0002775 -0.0025 0.5
0.053335 0.041625 -6.2364e-19 0.5
0.0677863 0.000555 -0.0025 0.5
0.0677863 0.000555 0.0025 0.5
0.0533375 0.0421775 -0.00248871 0.5
0.0533375 0.0421775 0.00248871 0.5
0.0533351 0.04218 0.0025 0.5
0.0533351 0.04218 -0.0025 0.5
0.0533375 0.0421775 0.0025 0.5
0.0533375 0.0421775 -0.0025 0.5
0.0533375 0.0421825 0.00248891 0.5
0.0533375 0.0421825 -0.00248891 0.5
0.0533375 0.0421825 0.0025 0.5
0.0533375 0.0421825 -0.0025 0.5
0.05334 0.0422528 -0.0025 0.5
0.05334 0.0422528 0.0025 0.5
0.0680641 0.0002775 0.0025 0.5
0.0680641 0.0002775 -0.0025 0.5
0.0683419 0.0002775 1.14121e-19 0.5
0.05334 0.042735 6.51126e-19 0.5
0.0686197 0.0002775 0.0025 0.5
0.0686197 0.0002775 -0.0025 0.5
0.0533732 0.0432569 -0.00235076 0.5
0.0533732 0.0432569 0.00235076 0.5
0.0533732 0.0432569 0.0025 0.5
0.0533732 0.0432569 -0.0025 0.5
0.0533836 0.0433335 -0.00230395 0.5
0.0533836 0.0433335 0.00230395 0.5
0.0534105 0.04329 0.0025 0.5
0.0534105 0.04329 -0.0025 0.5
0.0533836 0.0433335 0.0025 0.5
0.0533836 0.0433335 -0.0025 0.5
0.0688975 0.000555 -0.0025 0.5
0.0688975 0.000555 0.0025 0.5
0.0534208 0.043845 3.44967e-21 0.5
0.0691753 0.0002775 0.0025 0.5
0.0691753 0.0002775 -0.0025 0.5
0.0534701 0.04427 -0.00191457 0.5
0.0534701 0.04427 0.00191457 0.5
0.0694531 0.0002775 9.36031e-20 0.5
0.0534701 0.04427 0.0025 0.5
0.0534701 0.04427 -0.0025 0.5
0.0535935 0.0444 0.0025 0.5
0.0535935 0.0444 -0.0025 0.5
0.0535625 0.0446223 -0.00149865 0.5
0.0535625 0.0446223 0.00149865 0.5
0.0535625 0.0446223 0.0025 0.5
0.0535625 0.0446223 -0.0025 0.5
0.0697309 0.0002775 0.0025 0.5
0.0697309 0.0002775 -0.0025 0.5
0.0700088 0.000555 -0.0025 0.5
0.0700088 0.000555 0.0025 0.5
0.0536289 0.0451272 0 0.5
0.053637 0.0452133 0.0025 0.5
0.053637 0.0452133 -0.0025 0.5
0.0702866 0.0002775 0.0025 0.5
0.0702866 0.0002775 -0.0025 0.5
0.0537758 0.04551 0.0025 0.5
0.0537758 0.04551 -0.0025 0.5
0.0705644 0.0002775 2.66209e-19 0.5
0.053792 0.0459615 0.0025 0.5
0.053792 0.0459615 -0.0025 0.5
0.0538021 0.0460589 0 0.5
0.0708422 0.0002775 0.0025 0.5
0.0708422 0.0002775 -0.0025 0.5
0.0538104 0.0461501 0.0025 0.5
0.0538104 0.0461501 -0.0025 0.5
0.07112 0.000555 -0.0025 0.5
0.07112 0.000555 0.0025 0.5
0.0538917 0.04662 0.0025 0.5
0.0538917 0.04662 -0.0025 0.5
0.0713978 0.0002775 0.0025 0.5
0.0713978 0.0002775 -0.0025 0.5
0.0539675 0.0471341 2.33254e-22 0.5
0.0539683 0.0471024 -0.0025 0.5
0.0539683 0.0471024 0.0025 0.5
0.0716756 0.0002775 9.36031e-20 0.5
0.0539781 0.0472573 -0.0025 0.5
0.0539781 0.0472573 0.0025 0.5
0.0719534 0.0002775 0.0025 0.5
0.0719534 0.0002775 -0.0025 0.5
0.0539679 0.04773 0.0025 0.5
0.0539679 0.04773 -0.0025 0.5
0.0722313 0.000555 -0.0025 0.5
0.0722313 0.000555 0.0025 0.5
0.0540611 0.0481197 0.0025 0.5
0.0540611 0.0481197 -0.0025 0.5
0.0540679 0.0482893 -3.15914e-18 0.5
0.0725091 0.0002775 0.0025 0.5
0.0725091 0.0002775 -0.0025 0.5
0.0540739 0.0484631 0.0025 0.5
0.0540739 0.0484631 -0.0025 0.5
0.0727869 0.0002775 1.145e-19 0.5
0.0540172 0.04884 0.0025 0.5
0.0540172 0.04884 -0.0025 0.5
0.0730647 0.0002775 0.0025 0.5
0.0730647 0.0002775 -0.0025 0.5
0.0541142 0.0491767 0.0025 0.5
0.0541142 0.0491767 -0.0025 0.5
0.0541194 0.0493982 2.7516e-18 0.5
0.0733425 0.000555 -0.0025 0.5
0.0733425 0.000555 0.0025 0.5
0.0541238 0.0496229 0.0025 0.5
0.0541238 0.0496229 -0.0025 0.5
0.0540475 0.04995 -0.0025 0.5
0.0540475 0.04995 0.0025 0.5
0.0736203 0.0002775 0.0025 0.5
0.0736203 0.0002775 -0.0025 0.5
0.0738981 0.0002775 1.12679e-19 0.5
0.054144 0.0502569 0.0025 0.5
0.054144 0.0502569 -0.0025 0.5
0.0541472 0.0505069 1.65647e-18 0.5
0.0741759 0.0002775 0.0025 0.5
0.0741759 0.0002775 -0.0025 0.5
0.0541497 0.0507588 0.0025 0.5
0.0541497 0.0507588 -0.0025 0.5
0.0540641 0.05106 -0.0025 0.5
0.0540641 0.05106 0.0025 0.5
0.0744538 0.000555 -0.0025 0.5
0.0744538 0.000555 0.0025 0.5
0.0541586 0.0513523 -0.0025 0.5
0.0541586 0.0513523 0.0025 0.5
0.0747316 0.0002775 0.0025 0.5
0.0747316 0.0002775 -0.0025 0.5
0.0541598 0.0516156 -3.5203e-18 0.5
0.0750094 0.0002775 1.14375e-19 0.5
0.0541603 0.0518794 0.0025 0.5
0.0541603 0.0518794 -0.0025 0.5
0.054069 0.05217 0.0025 0.5
0.054069 0.05217 -0.0025 0.5
0.0752872 0.0002775 0.0025 0.5
0.0752872 0.0002775 -0.0025 0.5
0.0541596 0.0524613 0.0025 0.5
0.0541596 0.0524613 -0.0025 0.5
0.0541587 0.0527242 1.71083e-18 0.5
0.075565 0.000555 -0.0025 0.5
0.075565 0.000555 0.0025 0.5
0.0541572 0.0529862 0.0025 0.5
0.0541572 0.0529862 -0.0025 0.5
0.0758428 0.0002775 0.0025 0.5
0.0758428 0.0002775 -0.0025 0.5
0.0540623 0.05328 0.0025 0.5
0.0540623 0.05328 -0.0025 0.5
0.0761206 0.0002775 1.14623e-19 0.5
0.0541468 0.0535841 -0.0025 0.5
0.0541468 0.0535841 0.0025 0.5
0.054144 0.0538329 8.21195e-20 0.5
0.0763984 0.0002775 0.0025 0.5
0.0763984 0.0002775 -0.0025 0.5
0.0541406 0.0540797 -0.0025 0.5
0.0541406 0.0540797 0.0025 0.5
0.0540444 0.05439 0.0025 0.5
0.0540444 0.05439 -0.0025 0.5
0.0766763 0.000555 -0.0025 0.5
0.0766763 0.000555 0.0025 0.5
0.0769541 0.0002775 0.0025 0.5
0.0769541 0.0002775 -0.0025 0.5
0.0541194 0.0547215 0.0025 0.5
0.0541194 0.0547215 -0.0025 0.5
0.0541151 0.054942 -2.35699e-19 0.5
0.0772319 0.0002775 1.08196e-19 0.5
0.0541103 0.0551595 0.0025 0.5
0.0541103 0.0551595 -0.0025 0.5
0.0540158 0.0555 0.0025 0.5
0.0540158 0.0555 -0.0025 0.5
0.0775097 0.0002775 0.0025 0.5
0.0775097 0.0002775 -0.0025 0.5
0.0540742 0.0558766 0.0025 0.5
0.0540742 0.0558766 -0.0025 0.5
0.0777875 0.000555 -0.0025 0.5
0.0777875 0.000555 0.0025 0.5
0.0540692 0.0560515 2.56819e-19 0.5
0.0540637 0.0562228 0.0025 0.5
0.0540637 0.0562228 -0.0025 0.5
0.0780653 0.0002775 0.0025 0.5
0.0780653 0.0002775 -0.0025 0.5
0.0539754 0.05661 0.0025 0.5
0.0539754 0.05661 -0.0025 0.5
0.0783431 0.0002775 8.26565e-20 0.5
0.0540021 0.0570586 0.0025 0.5
0.0540021 0.0570586 -0.0025 0.5
0.0539979 0.0571621 -1.78359e-19 0.5
0.0786209 0.0002775 0.0025 0.5
0.0786209 0.0002775 -0.0025 0.5
0.0539934 0.0572626 0.0025 0.5
0.0539934 0.0572626 -0.0025 0.5
0.0788988 0.000555 -0.0025 0.5
0.0788988 0.000555 0.0025 0.5
0.0539226 0.05772 0.0025 0.5
0.0539226 0.05772 -0.0025 0.5
0.0791766 0.0002775 0.0025 0.5
0.0791766 0.0002775 -0.0025 0.5
0.0538909 0.0582713 -2.01016e-19 0.5
0.0538908 0.0582702 0.0025 0.5
0.0538908 0.0582702 -0.0025 0.5
0.0538902 0.0582804 0.0025 0.5
0.0538902 0.0582804 -0.0025 0.5
0.0794544 0.0002775 9.54222e-20 0.5
0.0797322 0.0002775 0.0025 0.5
0.0797322 0.0002775 -0.0025 0.5
0.0538586 0.05883 0.0025 0.5
0.0538586 0.05883 -0.0025 0.5
0.08001 0.000555 -0.0025 0.5
0.08001 0.000555 0.0025 0.5
0.0537756 0.0592651 0.0025 0.5
0.0537756 0.0592651 -0.0025 0.5
0.0537685 0.0593899 -5.42101e-20 0.5
0.053761 0.0595195 0.0025 0.5
0.053761 0.0595195 -0.0025 0.5
0.0802878 0.0002775 0.0025 0.5
0.0802878 0.0002775 -0.0025 0.5
0.0805656 0.0002775 1.15842e-19 0.5
0.0537868 0.05994 0.0025 0.5
0.0537868 0.05994 -0.0025 0.5
0.0536759 0.0602755 -0.0025 0.5
0.0536759 0.0602755 0.0025 0.5
0.0536637 0.0605033 -4.17657e-21 0.5
0.0808434 0.0002775 0.0025 0.5
0.0808434 0.0002775 -0.0025 0.5
0.053651 0.0607393 0.0025 0.5
0.053651 0.0607393 -0.0025 0.5
0.0811213 0.000555 -0.0025 0.5
0.0811213 0.000555 0.0025 0.5
0.0537117 0.06105 0.0025 0.5
0.0537117 0.06105 -0.0025 0.5
0.0813991 0.0002775 0.0025 0.5
0.0813991 0.0002775 -0.0025 0.5
0.0535934 0.0613031 -0.00136 0.5
0.0535934 0.0613031 0.00136 0.5
0.0535934 0.0613031 0.0025 0.5
0.0535934 0.0613031 -0.0025 0.5
0.0535787 0.061605 3.44203e-20 0.5
0.0816769 0.0002775 9.5745e-20 0.5
0.0535635 0.0619368 0.00149447 0.5
0.0535635 0.0619368 -0.00149447 0.5
0.0535635 0.0619368 0.0025 0.5
0.0535635 0.0619368 -0.0025 0.5
0.0819547 0.0002775 0.0025 0.5
0.0819547 0.0002775 -0.0025 0.5
0.0536383 0.06216 -0.0025 0.5
0.0536383 0.06216 0.0025 0.5
0.0535275 0.0623473 -0.00165631 0.5
0.0535275 0.0623473 0.00165631 0.5
0.0535275 0.0623473 -0.0025 0.5
0.0535275 0.0623473 0.0025 0.5
0.0822325 0.000555 -0.0025 0.5
0.0822325 0.000555 0.0025 0.5
0.0535121 0.062715 1.53865e-20 0.5
0.0825103 0.0002775 0.0025 0.5
0.0825103 0.0002775 -0.0025 0.5
0.0534973 0.0631129 -0.00179218 0.5
0.0534973 0.0631129 0.00179218 0.5
0.0534973 0.0631129 0.0025 0.5
0.0534973 0.0631129 -0.0025 0.5
0.0827881 0.0002775 8.32524e-20 0.5
0.0535713 0.06327 0.0025 0.5
0.0535713 0.06327 -0.0025 0.5
0.0534763 0.0634062 -0.00188662 0.5
0.0534763 0.0634062 0.00188662 0.5
0.0534763 0.0634062 0.0025 0.5
0.0534763 0.0634062 -0.0025 0.5
0.0830659 0.0002775 0.0025 0.5
0.0830659 0.0002775 -0.0025 0.5
0.0534619 0.063825 -3.02891e-20 0.5
0.0833437 0.000555 -0.0025 0.5
0.0833437 0.000555 0.0025 0.5
0.053448 0.0642721 -0.00201397 0.5
0.053448 0.0642721 0.00201397 0.5
0.053448 0.0642721 0.0025 0.5
0.053448 0.0642721 -0.0025 0.5
0.0836216 0.0002775 0.0025 0.5
0.0836216 0.0002775 -0.0025 0.5
0.0535117 0.06438 0.0025 0.5
0.0535117 0.06438 -0.0025 0.5
0.0534358 0.0644757 -0.00206895 0.5
0.0534358 0.0644757 0.00206895 0.5
0.0534358 0.0644757 0.0025 0.5
0.0534358 0.0644757 -0.0025 0.5
0.0838994 0.0002775 3.228e-22 0.5
0.0534224 0.064935 -2.85259e-20 0.5
0.0841772 0.0002775 0.0025 0.5
0.0841772 0.0002775 -0.0025 0.5
0.0534483 0.0653818 -0.00201281 0.5
0.0534483 0.0653818 0.00201281 0.5
0.0534483 0.0653818 0.0025 0.5
0.0534483 0.0653818 -0.0025 0.5
0.084455 0.000555 -0.0025 0.5
0.084455 0.000555 0.0025 0.5
0.0535395 0.06549 0.0025 0.5
0.0535395 0.06549 -0.0025 0.5
0.0534786 0.0656284 -0.0018765 0.5
0.0534786 0.0656284 0.0018765 0.5
0.0534786 0.0656284 0.0025 0.5
0.0534786 0.0656284 -0.0025 0.5
0.0847328 0.0002775 0.0025 0.5
0.0847328 0.0002775 -0.0025 0.5
0.0850106 0.0002775 0 0.5
0.0537007 0.0662397 0.0025 0.5
0.0537007 0.0662397 -0.0025 0.5
0.0852884 0.0002775 0.0025 0.5
0.0852884 0.0002775 -0.0025 0.5
0.0538437 0.0662267 -2.15036e-21 0.5
0.0540905 0.0662397 0.0025 0.5
0.0540905 0.0662397 -0.0025 0.5
0.0544513 0.0659903 -0.0025 0.5
0.0544513 0.0659903 0.0025 0.5
0.0855663 0.000555 -0.0025 0.5
0.0855663 0.000555 0.0025 0.5
0.0858441 0.0002775 0.0025 0.5
0.0858441 0.0002775 -0.0025 0.5
0.0547291 0.0663225 0.0025 0.5
0.0547291 0.0663225 -0.0025 0.5
0.0861219 0.0002775 0 0.5
0.0550069 0.0663225 0 0.5
0.0555625 0.066045 -0.0025 0.5
0.0555625 0.066045 0.0025 0.5
0.0552847 0.0663225 0.0025 0.5
0.0552847 0.0663225 -0.0025 0.5
0.0863997 0.0002775 0.0025 0.5
0.0863997 0.0002775 -0.0025 0.5
0.0866775 0.000555 -0.0025 0.5
0.0866775 0.000555 0.0025 0.5
0.0558403 0.0663225 0.0025 0.5
0.0558403 0.0663225 -0.0025 0.5
0.0561181 0.0663225 0 0.5
0.0869553 0.0002775 0.0025 0.5
0.0869553 0.0002775 -0.0025 0.5
0.0566738 0.066045 -0.0025 0.5
0.0566738 0.066045 0.0025 0.5
0.0563959 0.0663225 0.0025 0.5
0.0563959 0.0663225 -0.0025 0.5
0.0872331 0.0002775 0 0.5
0.0569516 0.0663225 0.0025 0.5
0.0569516 0.0663225 -0.0025 0.5
0.0875109 0.0002775 0.0025 0.5
0.0875109 0.0002775 -0.0025 0.5
0.0572294 0.0663225 0 0.5
0.057785 0.066045 -0.0025 0.5
0.057785 0.066045 0.0025 0.5
0.0575072 0.0663225 0.0025 0.5
0.0575072 0.0663225 -0.0025 0.5
0.0877888 0.000555 -0.0025 0.5
0.0877888 0.000555 0.0025 0.5
0.0880666 0.0002775 -0.00125 0.5
0.0880666 0.0002775 0.00125 0.5
0.0880666 0.0002775 0.0025 0.5
0.0880666 0.0002775 -0.0025 0.5
0.0580628 0.0663225 -0.0025 0.5
0.0580628 0.0663225 0.0025 0.5
0.0583406 0.0663225 0 0.5
0.0883444 0.0002775 0 0.5
0.0883444 0.00111 0.0025 0.5
0.0883444 0.00111 -0.0025 0.5
0.0883444 0.00222 0.0025 0.5
0.0883444 0.00222 -0.0025 0.5
0.0883444 0.00333 0.0025 0.5
0.0883444 0.00333 -0.0025 0.5
0.0883444 0.00444 0.0025 0.5
0.0883444 0.00444 -0.0025 0.5
0.0588963 0.066045 -0.0025 0.5
0.0588963 0.066045 0.0025 0.5
0.0586184 0.0663225 -0.0025 0.5
0.0586184 0.0663225 0.0025 0.5
0.0883444 0.00555 0.0025 0.5
0.0883444 0.00555 -0.0025 0.5
0.0886222 0.000555 0 0.5
0.0883444 0.00666 0.0025 0.5
0.0883444 0.00666 -0.0025 0.5
0.0886222 0.0002775 -0.00125 0.5
0.0886222 0.0002775 0.00125 0.5
0.0886222 0.0008325 0.00125 0.5
0.0886222 0.0008325 -0.00125 0.5
0.0886222 0.001665 0 0.5
0.0886222 0.0002775 0.0025 0.5
0.0886222 0.0002775 -0.0025 0.5
0.0886222 0.0008325 0.0025 0.5
0.0886222 0.0008325 -0.0025 0.5
0.0886222 0.002775 0 0.5
0.0886222 0.0013875 0.0025 0.5
0.0886222 0.0013875 -0.0025 0.5
0.0886222 0.0019425 0.0025 0.5
0.0886222 0.0019425 -0.0025 0.5
0.0886222 0.0024975 0.0025 0.5
0.0886222 0.0024975 -0.0025 0.5
0.0886222 0.003885 0 0.5
0.0886222 0.0030525 0.0025 0.5
0.0886222 0.0030525 -0.0025 0.5
0.0883444 0.00777 0.0025 0.5
0.0883444 0.00777 -0.0025 0.5
0.0886222 0.0036075 0.0025 0.5
0.0886222 0.0036075 -0.0025 0.5
0.0886222 0.0041625 0.0025 0.5
0.0886222 0.0041625 -0.0025 0.5
0.0886222 0.004995 -1.81603e-19 0.5
0.0886222 0.0047175 0.0025 0.5
0.0886222 0.0047175 -0.0025 0.5
0.0886222 0.0052725 0.0025 0.5
0.0886222 0.0052725 -0.0025 0.5
0.0883444 0.00888 0.0025 0.5
0.0883444 0.00888 -0.0025 0.5
0.0886222 0.006105 -4.31797e-21 0.5
0.0886222 0.0058275 0.0025 0.5
0.0886222 0.0058275 -0.0025 0.5
0.0886222 0.0063825 0.0025 0.5
0.0886222 0.0063825 -0.0025 0.5
0.0886222 0.007215 3.76366e-21 0.5
0.0591741 0.0663225 0.0025 0.5
0.0591741 0.0663225 -0.0025 0.5