0 	0 	0 	0
0.000446734 	-1.5366e-05 	-0.000106488 	7.33286e-26
0.000893467 	-3.0732e-05 	-0.000212976 	1.46657e-25
0.0013402 	-4.81086e-05 	-0.000295623 	2.57265e-25
0.00178693 	-6.73978e-05 	-0.000355593 	4.03334e-25
0.00223367 	-8.62775e-05 	-0.000414142 	5.4393e-25
0.0026804 	-8.91927e-05 	-0.000417266 	4.71094e-25
0.00312714 	-9.21079e-05 	-0.00042039 	3.98257e-25
0.00357387 	-7.42993e-05 	-0.000387475 	2.47413e-25
0.0040206 	-3.86586e-05 	-0.00032355 	2.94473e-26
0.00446734 	1.14303e-07 	-0.000255812 	-1.79381e-25
0.00491407 	9.83981e-05 	-0.000115636 	-2.14595e-25
0.0053608 	0.000196682 	2.45407e-05 	-2.4981e-25
0.00580754 	0.000343398 	0.000209991 	-1.67696e-25
0.00625427 	0.000527783 	0.000430654 	5.67321e-27
0.00670101 	0.000719834 	0.000656771 	1.78887e-25
0.00714774 	0.00100644 	0.000950156 	3.50181e-25
0.00759447 	0.00129305 	0.00124354 	5.21476e-25
0.00804121 	0.00163942 	0.0015649 	5.3252e-25
0.00848794 	0.00202776 	0.00190589 	4.31048e-25
0.00893467 	0.00242427 	0.00224775 	3.37143e-25
0.00938141 	0.00289444 	0.00259742 	3.11349e-25
0.00982814 	0.00336461 	0.0029471 	2.85554e-25
0.0102749 	0.00386461 	0.00327644 	4.39715e-25
0.0107216 	0.00438348 	0.00359292 	7.07726e-25
0.0111683 	0.0049039 	0.00390102 	9.23614e-25
0.0116151 	0.00543514 	0.00415044 	7.74651e-25
0.0120618 	0.00596639 	0.00439986 	6.25688e-25
0.0125085 	0.00648564 	0.00459377 	2.49427e-25
0.0129553 	0.00699806 	0.00475612 	-2.5608e-25
0.013402 	0.00750439 	0.00490452 	-7.20359e-25
0.0138487 	0.00797612 	0.00497393 	-9.51003e-25
0.0142955 	0.00844785 	0.00504334 	-1.18165e-24
0.0147422 	0.00888455 	0.0050545 	-1.09437e-24
0.0151889 	0.00930342 	0.00503598 	-8.4512e-25
0.0156357 	0.00971227 	0.0050041 	-5.33622e-25
0.0160824 	0.0100739 	0.00490923 	7.13563e-26
0.0165291 	0.0104355 	0.00481436 	6.76334e-25
0.0169759 	0.0107584 	0.00467679 	8.57313e-25
0.0174226 	0.0110635 	0.00451983 	8.45566e-25
0.0178693 	0.0113581 	0.00435331 	7.68938e-25
0.0183161 	0.0116104 	0.00414857 	4.3279e-25
0.0187628 	0.0118627 	0.00394384 	9.66425e-26
0.0192095 	0.0120804 	0.00371424 	0
0.0196563 	0.0122841 	0.00347461 	0
0.020103 	0.012478 	0.00322959 	-8.6937e-26
0.0205497 	0.0126376 	0.00296595 	-4.73324e-25
0.0209965 	0.0127972 	0.00270232 	-8.59711e-25
0.0214432 	0.0129268 	0.00242753 	-1.387e-24
0.0218899 	0.0130458 	0.00214876 	-1.96445e-24
0.0223367 	0.0131553 	0.001868 	-2.36789e-24
0.0227834 	0.0132364 	0.00158127 	-2.24933e-24
0.0232302 	0.0133174 	0.00129453 	-2.13078e-24
0.0236769 	0.0133709 	0.00100618 	-1.41235e-24
0.0241236 	0.0134158 	0.000717324 	-5.07074e-25
0.0245704 	0.0134509 	0.000429249 	3.3243e-25
0.0250171 	0.0134604 	0.000143234 	9.9854e-25
0.0254638 	0.0134698 	-0.000142781 	1.66465e-24
0.0259106 	0.0134513 	-0.000422995 	1.70365e-24
0.0263573 	0.0134253 	-0.000701642 	1.57342e-24
0.026804 	0.0133884 	-0.000976742 	1.41961e-24
0.0272508 	0.0133263 	-0.00124356 	1.21076e-24
0.0276975 	0.0132641 	-0.00151039 	1.00192e-24
0.0281442 	0.0131717 	-0.00176387 	1.02224e-24
0.028591 	0.0130724 	-0.00201427 	1.09545e-24
0.0290377 	0.0129606 	-0.00225776 	1.06286e-24
0.0294844 	0.0128229 	-0.00248688 	8.10512e-25
0.0299312 	0.0126852 	-0.002716 	5.58165e-25
0.0303779 	0.0125144 	-0.00292289 	-2.63979e-26
0.0308246 	0.012337 	-0.00312548 	-6.7542e-25
0.0312714 	0.0121455 	-0.00331678 	-1.07527e-24
0.0317181 	0.0119276 	-0.00348714 	-1.01236e-24
0.0321648 	0.0117096 	-0.0036575 	-9.49445e-25
0.0326116 	0.011456 	-0.00379475 	-3.4035e-25
0.0330583 	0.0111967 	-0.00392672 	3.55818e-25
0.033505 	0.0109217 	-0.00404182 	8.32768e-25
0.0339518 	0.0106206 	-0.00412882 	9.44352e-25
0.0343985 	0.0103195 	-0.00421581 	1.05594e-24
0.0348452 	0.00998151 	-0.004257 	6.99946e-25
0.035292 	0.00963885 	-0.00429238 	2.84685e-25
0.0357387 	0.00928032 	-0.00430484 	3.49736e-26
0.0361854 	0.00889797 	-0.00428291 	3.3588e-26
0.0366322 	0.00851563 	-0.00426098 	3.22024e-26
0.0370789 	0.00810163 	-0.00418397 	2.91784e-25
0.0375256 	0.0076846 	-0.00410169 	5.76389e-25
0.0379724 	0.00725701 	-0.00399451 	6.80279e-25
0.0384191 	0.00681516 	-0.00385366 	5.39672e-25
0.0388658 	0.0063733 	-0.00371281 	3.99064e-25
0.0393126 	0.00592275 	-0.00352486 	8.09776e-26
0.0397593 	0.00547162 	-0.00333376 	-2.48941e-25
0.040206 	0.00502538 	-0.00312684 	-4.36954e-25
0.0406528 	0.00458514 	-0.00290057 	-4.51527e-25
0.0410995 	0.00414489 	-0.0026743 	-4.66099e-25
0.0415462 	0.0037358 	-0.00243352 	-3.39534e-25
0.041993 	0.00332792 	-0.00219218 	-2.0747e-25
0.0424397 	0.00294424 	-0.00195445 	-1.20751e-25
0.0428864 	0.0025873 	-0.00172072 	-8.41498e-26
0.0433332 	0.00223036 	-0.00148698 	-4.75487e-26
0.0437799 	0.00193608 	-0.00128458 	-3.66717e-26
0.0442266 	0.00164259 	-0.00108257 	-2.61202e-26
0.0446734 	0.00138362 	-0.000909072 	-1.66546e-26
0.0451201 	0.00115915 	-0.000764079 	-8.27494e-27
0.0455668 	0.000935529 	-0.000620048 	2.061e-28
0.0460136 	0.000778443 	-0.000552098 	1.66941e-26
0.0464603 	0.000621358 	-0.000484149 	3.31821e-26
0.046907 	0.0004941 	-0.0004534 	6.30279e-26
0.0473538 	0.00039383 	-0.000456311 	1.04959e-25
0.0478005 	0.000295015 	-0.000459717 	1.45089e-25
0.0482472 	0.000233573 	-0.000475873 	1.38988e-25
0.048694 	0.000172131 	-0.000492028 	1.32886e-25
0.0491407 	0.000122276 	-0.000455546 	1.05211e-25
0.0495874 	8.19001e-05 	-0.000375998 	5.9884e-26
0.0500342 	4.29717e-05 	-0.000295139 	1.67424e-26
0.0504809 	2.57498e-05 	-0.000194628 	6.37613e-27
0.0509276 	8.52792e-06 	-9.41161e-05 	-3.99015e-27
0.0513744 	1.00738e-06 	-3.95298e-05 	-6.44353e-27
0.0518211 	6.57397e-07 	-1.88881e-05 	-3.04824e-27
0.0522678 	3.41955e-07 	-5.26787e-08 	4.82094e-29
0.0527146 	3.86699e-07 	-5.39171e-08 	2.81221e-29
0.0531613 	4.31444e-07 	-5.51556e-08 	8.0349e-30
0.053608 	4.4785e-07 	-5.66863e-08 	0
0.0540548 	4.45366e-07 	-5.8412e-08 	0
0.0545015 	4.42781e-07 	-6.00938e-08 	0
0.0549482 	4.39409e-07 	-6.14291e-08 	0
0.055395 	4.36037e-07 	-6.27644e-08 	0
0.0558417 	4.32296e-07 	-6.39109e-08 	-2.221e-29
0.0562884 	4.28335e-07 	-6.49441e-08 	-5.77461e-29
0.0567352 	4.24322e-07 	-6.59448e-08 	-9.49736e-29
0.0571819 	4.19987e-07 	-6.6742e-08 	-1.42811e-28
0.0576286 	4.15651e-07 	-6.75391e-08 	-1.90648e-28
0.0580754 	4.11168e-07 	-6.8218e-08 	-2.01013e-28
0.0585221 	4.06604e-07 	-6.88331e-08 	-1.91201e-28
0.0589688 	4.0202e-07 	-6.94262e-08 	-1.64089e-28
0.0594156 	3.97325e-07 	-6.99058e-08 	-4.78173e-29
0.0598623 	3.9263e-07 	-7.03854e-08 	6.8454e-29
0.060309 	3.87886e-07 	-7.08014e-08 	1.49448e-28
0.0607558 	3.83119e-07 	-7.11866e-08 	2.13458e-28
0.0612025 	3.78345e-07 	-7.1561e-08 	2.35049e-28
0.0616492 	3.73541e-07 	-7.1888e-08 	7.28275e-29
0.062096 	3.68736e-07 	-7.22151e-08 	-8.93939e-29
0.0625427 	3.63918e-07 	-7.25236e-08 	-2.42568e-28
0.0629894 	3.59093e-07 	-7.28242e-08 	-3.91864e-28
0.0634362 	3.54266e-07 	-7.3125e-08 	-5.15778e-28
0.0638829 	3.49427e-07 	-7.34265e-08 	-5.4563e-28
0.0643296 	3.44588e-07 	-7.37281e-08 	-5.75481e-28
0.0647764 	3.39737e-07 	-7.40476e-08 	-6.94007e-28
0.0652231 	3.34882e-07 	-7.43739e-08 	-8.46167e-28
0.0656698 	3.30021e-07 	-7.47109e-08 	-9.84655e-28
0.0661166 	3.25141e-07 	-7.50825e-08 	-1.07925e-27
0.0665633 	3.20262e-07 	-7.54541e-08 	-1.17384e-27
0.0670101 	3.15356e-07 	-7.58731e-08 	-8.79507e-28
0.0674568 	3.10441e-07 	-7.63079e-08 	-4.55531e-28
0.0679035 	3.05513e-07 	-7.67635e-08 	-3.89449e-29
0.0683503 	3.00548e-07 	-7.72775e-08 	3.56879e-28
0.068797 	2.95584e-07 	-7.77915e-08 	7.52702e-28
0.0692437 	2.90568e-07 	-7.83781e-08 	8.56549e-28
0.0696905 	2.85538e-07 	-7.89858e-08 	8.75628e-28
0.0701372 	2.80485e-07 	-7.96243e-08 	9.46801e-28
0.0705839 	2.75372e-07 	-8.03394e-08 	1.14708e-27
0.0710307 	2.70259e-07 	-8.10545e-08 	1.34735e-27
0.0714774 	2.65065e-07 	-8.18662e-08 	1.23947e-27
0.0719241 	2.59851e-07 	-8.27021e-08 	1.05455e-27
0.0723709 	2.54599e-07 	-8.35801e-08 	7.08413e-28
0.0728176 	2.49265e-07 	-8.45506e-08 	7.61632e-30
0.0732643 	2.4393e-07 	-8.55211e-08 	-6.9318e-28
0.0737111 	2.38478e-07 	-8.66147e-08 	-1.18153e-27
0.0741578 	2.33002e-07 	-8.77344e-08 	-1.62482e-27
0.0746045 	2.27471e-07 	-8.89099e-08 	-2.04872e-27
0.0750513 	2.21833e-07 	-9.01951e-08 	-2.43455e-27
0.075498 	2.16194e-07 	-9.14802e-08 	-2.82037e-27
0.0759447 	2.10399e-07 	-9.29216e-08 	-2.70965e-27
0.0763915 	2.04576e-07 	-9.43905e-08 	-2.51131e-27
0.0768382 	1.98679e-07 	-9.59339e-08 	-1.99109e-27
0.0772849 	1.9265e-07 	-9.76081e-08 	-9.04799e-28
0.0777317 	1.8662e-07 	-9.92823e-08 	1.81492e-28
0.0781784 	1.80391e-07 	-1.01158e-07 	9.95567e-28
0.0786251 	1.74133e-07 	-1.03063e-07 	1.77075e-27
0.0790719 	1.67778e-07 	-1.0507e-07 	2.30927e-27
0.0795186 	1.61269e-07 	-1.07236e-07 	2.47367e-27
0.0799653 	1.5476e-07 	-1.09402e-07 	2.63808e-27
0.0804121 	1.48007e-07 	-1.11837e-07 	2.42662e-27
0.0808588 	1.41227e-07 	-1.14302e-07 	2.17339e-27
0.0813055 	1.34328e-07 	-1.16908e-07 	1.68319e-27
0.0817523 	1.2726e-07 	-1.19715e-07 	8.55501e-28
0.082199 	1.20192e-07 	-1.22523e-07 	2.78097e-29
0.0826457 	1.12846e-07 	-1.25697e-07 	-6.94304e-28
0.0830925 	1.05478e-07 	-1.28901e-07 	-1.40786e-27
0.0835392 	9.79788e-08 	-1.32307e-07 	-1.82425e-27
0.0839859 	9.03098e-08 	-1.35972e-07 	-1.85857e-27
0.0844327 	8.26408e-08 	-1.39637e-07 	-1.8929e-27
0.0848794 	7.46986e-08 	-1.43808e-07 	-1.19636e-27
0.0853261 	6.6742e-08 	-1.48006e-07 	-4.61355e-28
0.0857729 	5.86686e-08 	-1.52487e-07 	-5.52016e-29
0.0862196 	5.04594e-08 	-1.57297e-07 	-3.12272e-29
0.0866663 	4.22503e-08 	-1.62106e-07 	-7.25274e-30
0.0871131 	3.3855e-08 	-1.67582e-07 	-8.88738e-28
0.0875598 	2.5455e-08 	-1.73076e-07 	-1.79344e-27
0.0880065 	1.7005e-08 	-1.4142e-07 	-1.81475e-27
0.0884533 	8.50251e-09 	-7.07099e-08 	-9.07377e-28
0.0889 	2.53174e-22 	-4.83963e-21 	-7.39224e-41
