0 	0 	0 	0
0.000446734 	2.56215e-06 	0.000256522 	-8.76573e-27
0.000893467 	5.12431e-06 	0.000513044 	-1.75315e-26
0.0013402 	6.00038e-06 	0.000652781 	-1.95829e-26
0.00178693 	5.27261e-06 	0.000681429 	-1.52477e-26
0.00223367 	4.63385e-06 	0.000706833 	-1.09101e-26
0.0026804 	7.46611e-06 	0.000605706 	-6.47962e-27
0.00312714 	1.02984e-05 	0.00050458 	-2.04911e-27
0.00357387 	1.80077e-05 	0.000376928 	0
0.0040206 	2.99136e-05 	0.000226452 	0
0.00446734 	4.19892e-05 	7.65852e-05 	0
0.00491407 	5.729e-05 	-6.17145e-05 	0
0.0053608 	7.25907e-05 	-0.000200014 	0
0.00580754 	8.20498e-05 	-0.000307983 	0
0.00625427 	8.69656e-05 	-0.000392362 	0
0.00670101 	9.00253e-05 	-0.000471455 	-6.09392e-28
0.00714774 	7.0195e-05 	-0.000485353 	-8.73461e-27
0.00759447 	5.03646e-05 	-0.000499251 	-1.68598e-26
0.00804121 	1.02755e-05 	-0.000476026 	-2.478e-26
0.00848794 	-4.40378e-05 	-0.000426737 	-3.25562e-26
0.00893467 	-0.000102325 	-0.000373029 	-3.87422e-26
0.00938141 	-0.000196379 	-0.000279549 	-3.0617e-26
0.00982814 	-0.000290433 	-0.000186069 	-2.24917e-26
0.0102749 	-0.00041132 	-7.58825e-05 	-1.45803e-26
0.0107216 	-0.000549183 	4.48741e-05 	-6.80414e-27
0.0111683 	-0.000693167 	0.000167959 	-3.79052e-28
0.0116151 	-0.000880008 	0.000307344 	-3.41147e-27
0.0120618 	-0.00106685 	0.000446728 	-6.44388e-27
0.0125085 	-0.00128857 	0.000596742 	-9.21665e-27
0.0129553 	-0.00153012 	0.0007528 	-1.18418e-26
0.013402 	-0.00178046 	0.000911367 	-1.36183e-26
0.0138487 	-0.00208054 	0.00108416 	-1.05859e-26
0.0142955 	-0.00238062 	0.00125695 	-7.55346e-27
0.0147422 	-0.00271888 	0.00143951 	-4.79087e-27
0.0151889 	-0.00307659 	0.00162705 	-2.16574e-27
0.0156357 	-0.00344309 	0.00181612 	0
0.0160824 	-0.00385104 	0.00201243 	0
0.0165291 	-0.00425899 	0.00220873 	0
0.0169759 	-0.00469202 	0.0024044 	0
0.0174226 	-0.00513644 	0.00259977 	0
0.0178693 	-0.00558448 	0.00279263 	0
0.0183161 	-0.00604704 	0.0029754 	0
0.0187628 	-0.0065096 	0.00315817 	0
0.0192095 	-0.00697084 	0.00332385 	0
0.0196563 	-0.00743155 	0.00348262 	0
0.020103 	-0.00788767 	0.00363394 	0
0.0205497 	-0.00832797 	0.00375959 	0
0.0209965 	-0.00876827 	0.00388524 	0
0.0214432 	-0.00918265 	0.00398232 	0
0.0218899 	-0.0095878 	0.00406924 	0
0.0223367 	-0.00998178 	0.00414605 	5.08694e-28
0.0227834 	-0.0103422 	0.00419253 	2.54347e-27
0.0232302 	-0.0107027 	0.00423901 	4.57825e-27
0.0236769 	-0.0110258 	0.00425599 	7.00418e-27
0.0241236 	-0.0113373 	0.00426378 	9.55194e-27
0.0245704 	-0.0116355 	0.0042621 	1.08395e-26
0.0250171 	-0.0118985 	0.00423547 	8.80473e-27
0.0254638 	-0.0121615 	0.00420883 	6.76996e-27
0.0259106 	-0.0123891 	0.00415956 	9.54216e-27
0.0263573 	-0.0126071 	0.00410419 	1.36115e-26
0.026804 	-0.0128134 	0.004042 	1.85966e-26
0.0272508 	-0.012992 	0.00396391 	2.57186e-26
0.0276975 	-0.0131706 	0.00388583 	3.28405e-26
0.0281442 	-0.0133221 	0.00379388 	2.87995e-26
0.028591 	-0.0134672 	0.00369872 	2.21824e-26
0.0290377 	-0.0136034 	0.00359956 	1.54012e-26
0.0294844 	-0.0137206 	0.00349208 	8.27927e-27
0.0299312 	-0.0138379 	0.00338461 	1.15732e-27
0.0303779 	-0.0139358 	0.00326991 	0
0.0308246 	-0.0140299 	0.00315381 	0
0.0312714 	-0.0141171 	0.00303563 	0
0.0317181 	-0.0141916 	0.00291359 	0
0.0321648 	-0.0142661 	0.00279154 	0
0.0326116 	-0.0143259 	0.00266593 	1.46834e-26
0.0330583 	-0.0143834 	0.00253975 	3.17076e-26
0.033505 	-0.0144352 	0.00241244 	4.87903e-26
0.0339518 	-0.0144774 	0.00228324 	6.59704e-26
0.0343985 	-0.0145196 	0.00215405 	8.31505e-26
0.0348452 	-0.0145494 	0.00202274 	6.99743e-26
0.035292 	-0.0145775 	0.00189116 	5.29501e-26
0.0357387 	-0.0146003 	0.00175873 	3.58635e-26
0.0361854 	-0.0146151 	0.00162504 	1.86834e-26
0.0366322 	-0.0146299 	0.00149135 	1.50326e-27
0.0370789 	-0.014633 	0.00135577 	-3.9039e-27
0.0375256 	-0.0146349 	0.00122001 	-8.18214e-27
0.0379724 	-0.0146315 	0.00108332 	-1.25036e-26
0.0384191 	-0.0146208 	0.000945356 	-1.68837e-26
0.0388658 	-0.0146101 	0.000807396 	-2.12637e-26
0.0393126 	-0.0145877 	0.000667172 	-1.75266e-26
0.0397593 	-0.0145644 	0.000526796 	-1.32484e-26
0.040206 	-0.0145355 	0.000385215 	-8.92433e-27
0.0406528 	-0.0144997 	0.000242163 	-4.54429e-27
0.0410995 	-0.0144639 	9.91111e-05 	-1.64252e-28
0.0415462 	-0.0144157 	-4.67725e-05 	0
0.041993 	-0.0143671 	-0.000192766 	0
0.0424397 	-0.0143122 	-0.000340265 	0
0.0428864 	-0.0142504 	-0.000489427 	0
0.0433332 	-0.0141887 	-0.000638588 	0
0.0437799 	-0.0141134 	-0.00079098 	-4.9547e-27
0.0442266 	-0.0140379 	-0.000943414 	-9.97212e-27
0.0446734 	-0.0139553 	-0.00109743 	-1.50579e-26
0.0451201 	-0.0138655 	-0.00125303 	-2.02121e-26
0.0455668 	-0.0137755 	-0.00140866 	-2.52391e-26
0.0460136 	-0.0136705 	-0.00156703 	-2.02216e-26
0.0464603 	-0.0135655 	-0.0017254 	-1.52042e-26
0.046907 	-0.0134521 	-0.00188483 	-1.0115e-26
0.0473538 	-0.0133309 	-0.00204522 	-4.96087e-27
0.0478005 	-0.0132091 	-0.00220564 	2.05524e-28
0.0482472 	-0.0130707 	-0.00236683 	5.68617e-27
0.048694 	-0.0129323 	-0.00252802 	1.11668e-26
0.0491407 	-0.0127837 	-0.00268865 	1.66679e-26
0.0495874 	-0.0126267 	-0.00284883 	2.21858e-26
0.0500342 	-0.0124685 	-0.00300879 	2.70162e-26
0.0504809 	-0.0122916 	-0.00316544 	2.15356e-26
0.0509276 	-0.0121147 	-0.0033221 	1.60549e-26
0.0513744 	-0.0119255 	-0.00347478 	1.71382e-26
0.0518211 	-0.0117271 	-0.00362453 	2.30731e-26
0.0522678 	-0.0115267 	-0.0037733 	2.94602e-26
0.0527146 	-0.0113052 	-0.00391177 	4.0563e-26
0.0531613 	-0.0110837 	-0.00405024 	5.16657e-26
0.053608 	-0.0108472 	-0.00417862 	4.92352e-26
0.0540548 	-0.0106007 	-0.00430029 	3.77824e-26
0.0545015 	-0.0103512 	-0.0044193 	2.6369e-26
0.0549482 	-0.0100779 	-0.00451739 	1.52663e-26
0.055395 	-0.00980461 	-0.00461549 	4.16353e-27
0.0558417 	-0.00951346 	-0.00469387 	0
0.0562884 	-0.00921161 	-0.00476042 	0
0.0567352 	-0.00890566 	-0.00482142 	0
0.0571819 	-0.0085741 	-0.00484752 	0
0.0576286 	-0.00824253 	-0.00487362 	0
0.0580754 	-0.00789174 	-0.00486747 	0
0.0585221 	-0.0075306 	-0.00484395 	0
0.0589688 	-0.00716507 	-0.00481104 	-6.612e-28
0.0594156 	-0.00677692 	-0.0047298 	-4.73012e-27
0.0598623 	-0.00638876 	-0.00464855 	-8.79905e-27
0.060309 	-0.00598668 	-0.00452499 	-1.20095e-26
0.0607558 	-0.0055779 	-0.00438105 	-1.48067e-26
0.0612025 	-0.00516742 	-0.0042255 	-1.63164e-26
0.0616492 	-0.00474958 	-0.00401971 	-1.22475e-26
0.062096 	-0.00433174 	-0.00381391 	-8.17858e-27
0.0625427 	-0.00391969 	-0.00357134 	-4.9999e-27
0.0629894 	-0.00351013 	-0.00331302 	-2.20275e-27
0.0634362 	-0.00310699 	-0.00304763 	0
0.0638829 	-0.00272768 	-0.00275604 	0
0.0643296 	-0.00234837 	-0.00246445 	0
0.0647764 	-0.00200774 	-0.00216891 	0
0.0652231 	-0.00168178 	-0.00187187 	0
0.0656698 	-0.0013729 	-0.00158097 	-1.94341e-29
0.0661166 	-0.00111883 	-0.00130981 	-1.01262e-28
0.0665633 	-0.000864756 	-0.00103864 	-1.8309e-28
0.0670101 	-0.000670651 	-0.000807486 	-2.89715e-28
0.0674568 	-0.000496535 	-0.000589672 	-4.04606e-28
0.0679035 	-0.000342044 	-0.000390574 	-4.67858e-28
0.0683503 	-0.000242686 	-0.000244064 	-3.86031e-28
0.068797 	-0.000143329 	-9.7554e-05 	-3.04203e-28
0.0692437 	-8.92321e-05 	-1.24388e-05 	-1.96751e-28
0.0696905 	-4.82748e-05 	5.4852e-05 	-8.18599e-29
0.0701372 	-1.67707e-05 	9.87823e-05 	0
0.0705839 	-8.69402e-06 	8.48189e-05 	0
0.0710307 	-6.17288e-07 	7.08555e-05 	0
0.0714774 	6.77074e-07 	4.61733e-05 	-5.14623e-36
0.0719241 	2.75845e-07 	1.88114e-05 	-1.1579e-35
0.0723709 	4.02608e-13 	4.12244e-11 	-1.60261e-35
0.0728176 	2.17599e-13 	2.22935e-11 	-1.61048e-35
0.0732643 	3.25888e-14 	3.36264e-12 	-1.61834e-35
0.0737111 	1.42893e-16 	3.31203e-14 	-1.08901e-35
0.0741578 	5.89977e-17 	1.29732e-14 	-4.45735e-36
0.0746045 	2.95135e-18 	-3.23427e-16 	-1.69088e-37
0.0750513 	1.57198e-18 	-1.72998e-16 	-9.04423e-38
0.075498 	1.92605e-19 	-2.25693e-17 	-1.17968e-38
0.0759447 	-1.59329e-20 	-5.2867e-21 	0
0.0763915 	-1.78523e-20 	-5.70743e-21 	0
0.0768382 	-1.9044e-20 	-6.15403e-21 	0
0.0772849 	-1.89558e-20 	-6.64611e-21 	0
0.0777317 	-1.88677e-20 	-7.13818e-21 	0
0.0781784 	-1.86528e-20 	-7.69618e-21 	0
0.0786251 	-1.84198e-20 	-8.26359e-21 	0
0.0790719 	-1.81332e-20 	-8.86169e-21 	0
0.0795186 	-1.7762e-20 	-9.50827e-21 	0
0.0799653 	-1.73908e-20 	-1.01549e-20 	0
0.0804121 	-1.69015e-20 	-1.08755e-20 	0
0.0808588 	-1.63991e-20 	-1.16044e-20 	0
0.0813055 	-1.58452e-20 	-1.23689e-20 	0
0.0817523 	-1.52179e-20 	-1.31839e-20 	0
0.082199 	-1.45907e-20 	-1.39989e-20 	0
0.0826457 	-1.38538e-20 	-1.48993e-20 	0
0.0830925 	-1.31081e-20 	-1.58065e-20 	0
0.0835392 	-1.23138e-20 	-1.67582e-20 	0
0.0839859 	-1.14573e-20 	-1.77669e-20 	0
0.0844327 	-1.06007e-20 	-1.87757e-20 	0
0.0848794 	-9.64886e-21 	-1.98928e-20 	0
0.0853261 	-8.69203e-21 	-2.10156e-20 	0
0.0857729 	-7.69588e-21 	-2.21982e-20 	0
0.0862196 	-6.65405e-21 	-2.34501e-20 	0
0.0866663 	-5.61221e-21 	-2.4702e-20 	0
0.0871131 	-4.50838e-21 	-2.60945e-20 	0
0.0875598 	-3.40295e-21 	-2.74906e-20 	0
0.0880065 	-2.28054e-21 	-2.26783e-20 	0
0.0884533 	-1.14027e-21 	-1.13391e-20 	0
0.0889 	-3.59349e-35 	-4.20258e-34 	0
