# f_l  POINT_DATA 1324
#  x  y  z  f_l
0.0610297 0.001665 -1.2467e-19 0.5
0.0610033 0.00222 0.0025 0.5
0.0610033 0.00222 -0.0025 0.5
0.061056 0.00111 0.0025 0.5
0.061056 0.00111 -0.0025 0.5
0.0610441 0.00214539 -0.00216393 0.5
0.0610441 0.00214539 0.00216393 0.5
0.0610617 0.002775 -2.70242e-21 0.5
0.0610469 0.00229176 -0.00217677 0.5
0.0610469 0.00229176 0.00217677 0.5
0.0610777 0.00115104 0.00231513 0.5
0.0610777 0.00115104 -0.00231513 0.5
0.0610441 0.00214539 0.0025 0.5
0.0610441 0.00214539 -0.0025 0.5
0.0610795 0.00107078 -0.00232332 0.5
0.0610795 0.00107078 0.00232332 0.5
0.0610777 0.00115104 0.0025 0.5
0.0610777 0.00115104 -0.0025 0.5
0.0610795 0.00107078 0.0025 0.5
0.0610795 0.00107078 -0.0025 0.5
0.0610469 0.00229176 0.0025 0.5
0.0610469 0.00229176 -0.0025 0.5
0.0611187 0.00105909 -0.0025 0.5
0.0611187 0.00105909 0.0025 0.5
0.0610496 0.00333 0.0025 0.5
0.0610496 0.00333 -0.0025 0.5
0.0610745 0.00328582 -0.002301 0.5
0.0610745 0.00328582 0.002301 0.5
0.061089 0.003885 -3.85894e-21 0.5
0.0610758 0.00337285 0.00230697 0.5
0.0610758 0.00337285 -0.00230697 0.5
0.0610745 0.00328582 0.0025 0.5
0.0610745 0.00328582 -0.0025 0.5
0.0610758 0.00337285 0.0025 0.5
0.0610758 0.00337285 -0.0025 0.5
0.0610958 0.00444 0.0025 0.5
0.0610958 0.00444 -0.0025 0.5
0.0611042 0.00442545 -0.00243447 0.5
0.0611042 0.00442545 0.00243447 0.5
0.0611046 0.00445411 0.00243643 0.5
0.0611046 0.00445411 -0.00243643 0.5
0.0611042 0.00442545 0.0025 0.5
0.0611042 0.00442545 -0.0025 0.5
0.0611046 0.00445411 0.0025 0.5
0.0611046 0.00445411 -0.0025 0.5
0.0611203 0.004995 -3.13953e-19 0.5
0.0611187 0.00490356 -0.0025 0.5
0.0611187 0.00490356 0.0025 0.5
0.0611384 0.00553041 -0.00241177 0.5
0.0611384 0.00553041 0.00241177 0.5
0.0611384 0.00553041 0.0025 0.5
0.0611384 0.00553041 -0.0025 0.5
0.0611405 0.00557174 -0.00240208 0.5
0.0611405 0.00557174 0.00240208 0.5
0.0611405 0.00557174 0.0025 0.5
0.0611405 0.00557174 -0.0025 0.5
0.061151 0.00555 0.0025 0.5
0.061151 0.00555 -0.0025 0.5
0.0611592 0.006105 3.33102e-19 0.5
0.0614672 0.000348079 -0.0025 0.5
0.0614672 0.000348079 0.0025 0.5
0.0611793 0.00659949 -0.00222742 0.5
0.0611793 0.00659949 0.00222742 0.5
0.0611793 0.00659949 -0.0025 0.5
0.0611793 0.00659949 0.0025 0.5
0.0611874 0.00672859 -0.00219106 0.5
0.0611874 0.00672859 0.00219106 0.5
0.0611874 0.00672859 0.0025 0.5
0.0611874 0.00672859 -0.0025 0.5
0.0616108 0.000361874 -7.70393e-23 0.5
0.0612143 0.00666 0.0025 0.5
0.0612143 0.00666 -0.0025 0.5
0.0612081 0.007215 7.95129e-20 0.5
0.0612299 0.007659 -0.002 0.5
0.0612299 0.007659 0.002 0.5
0.0612299 0.007659 0.0025 0.5
0.0612299 0.007659 -0.0025 0.5
0.061248 0.00789913 -0.00191834 0.5
0.061248 0.00789913 0.00191834 0.5
0.061248 0.00789913 0.0025 0.5
0.061248 0.00789913 -0.0025 0.5
0.0612853 0.00777 0.0025 0.5
0.0612853 0.00777 -0.0025 0.5
0.06127 0.008325 -1.62504e-19 0.5
0.0612925 0.0087064 -0.00171801 0.5
0.0612925 0.0087064 0.00171801 0.5
0.0618815 0.000348079 0.0025 0.5
0.0618815 0.000348079 -0.0025 0.5
0.0612925 0.0087064 0.0025 0.5
0.0612925 0.0087064 -0.0025 0.5
0.0613276 0.00908865 -0.00156014 0.5
0.0613276 0.00908865 0.00156014 0.5
0.0613276 0.00908865 0.0025 0.5
0.0613276 0.00908865 -0.0025 0.5
0.0613643 0.00888 0.0025 0.5
0.0613643 0.00888 -0.0025 0.5
0.0613494 0.009435 6.08502e-20 0.5
0.0613709 0.00973817 -0.00136562 0.5
0.0613709 0.00973817 0.00136562 0.5
0.0613709 0.00973817 0.0025 0.5
0.0613709 0.00973817 -0.0025 0.5
0.06223 0.000597881 -0.0025 0.5
0.06223 0.000597881 0.0025 0.5
0.0614505 0.00999 0.0025 0.5
0.0614505 0.00999 -0.0025 0.5
0.061434 0.0103049 -0.0025 0.5
0.061434 0.0103049 0.0025 0.5
0.0614519 0.0105332 -1.3304e-19 0.5
0.0614695 0.0107497 -0.0025 0.5
0.0614695 0.0107497 0.0025 0.5
0.0625078 0.0002775 0.0025 0.5
0.0625078 0.0002775 -0.0025 0.5
0.0615427 0.0111 0.0025 0.5
0.0615427 0.0111 -0.0025 0.5
0.0615875 0.0116495 -1.28241e-19 0.5
0.0615791 0.0115598 0.0025 0.5
0.0615791 0.0115598 -0.0025 0.5
0.0615957 0.0117336 -0.0025 0.5
0.0615957 0.0117336 0.0025 0.5
0.0627856 0.0002775 3.76374e-21 0.5
0.0616392 0.01221 0.0025 0.5
0.0616392 0.01221 -0.0025 0.5
0.0617434 0.0127218 1.18106e-20 0.5
0.061744 0.0126955 0.0025 0.5
0.061744 0.0126955 -0.0025 0.5
0.0630634 0.0002775 -0.0025 0.5
0.0630634 0.0002775 0.0025 0.5
0.0617545 0.012845 0.0025 0.5
0.0617545 0.012845 -0.0025 0.5
0.0617384 0.01332 0.0025 0.5
0.0617384 0.01332 -0.0025 0.5
0.0633413 0.000555 -0.0025 0.5
0.0633413 0.000555 0.0025 0.5
0.0618682 0.0136814 0.0025 0.5
0.0618682 0.0136814 -0.0025 0.5
0.0618812 0.0138839 -5.87742e-19 0.5
0.061895 0.0140954 0.0025 0.5
0.061895 0.0140954 -0.0025 0.5
0.0618375 0.01443 0.0025 0.5
0.0618375 0.01443 -0.0025 0.5
0.0636191 0.0002775 0.0025 0.5
0.0636191 0.0002775 -0.0025 0.5
0.0619684 0.0146913 0.00132309 0.5
0.0619684 0.0146913 -0.00132309 0.5
0.0619684 0.0146913 0.0025 0.5
0.0619684 0.0146913 -0.0025 0.5
0.0619855 0.014985 3.60582e-19 0.5
0.0620045 0.0153148 -0.00148558 0.5
0.0620045 0.0153148 0.00148558 0.5
0.0638969 0.0002775 -5.95927e-22 0.5
0.061933 0.01554 0.0025 0.5
0.061933 0.01554 -0.0025 0.5
0.0620045 0.0153148 0.0025 0.5
0.0620045 0.0153148 -0.0025 0.5
0.0620489 0.0157209 0.00168529 0.5
0.0620489 0.0157209 -0.00168529 0.5
0.0620489 0.0157209 0.0025 0.5
0.0620489 0.0157209 -0.0025 0.5
0.0620683 0.016095 -1.44571e-20 0.5
0.0641747 0.0002775 0.0025 0.5
0.0641747 0.0002775 -0.0025 0.5
0.06202 0.01665 0.0025 0.5
0.06202 0.01665 -0.0025 0.5
0.0620878 0.016508 -0.00186016 0.5
0.0620878 0.016508 0.00186016 0.5
0.0620878 0.016508 0.0025 0.5
0.0620878 0.016508 -0.0025 0.5
0.0621113 0.0167686 0.00196581 0.5
0.0621113 0.0167686 -0.00196581 0.5
0.0621113 0.0167686 0.0025 0.5
0.0621113 0.0167686 -0.0025 0.5
0.0621301 0.017205 0 0.5
0.0644525 0.000555 -0.0025 0.5
0.0644525 0.000555 0.0025 0.5
0.0621636 0.01776 0.0025 0.5
0.0621636 0.01776 -0.0025 0.5
0.0621889 0.017719 0.00231513 0.5
0.0621889 0.017719 -0.00231513 0.5
0.0621889 0.017719 0.0025 0.5
0.0621889 0.017719 -0.0025 0.5
0.0621939 0.0177961 0.00233743 0.5
0.0621939 0.0177961 -0.00233743 0.5
0.0621939 0.0177961 0.0025 0.5
0.0621939 0.0177961 -0.0025 0.5
0.0647303 0.0002775 0.0025 0.5
0.0647303 0.0002775 -0.0025 0.5
0.06223 0.0180943 -0.0025 0.5
0.06223 0.0180943 0.0025 0.5
0.0622604 0.018315 3.50122e-19 0.5
0.0650081 0.0002775 0 0.5
0.0623148 0.0187853 -0.00211856 0.5
0.0623148 0.0187853 0.00211856 0.5
0.0623148 0.0187853 0.0025 0.5
0.0623148 0.0187853 -0.0025 0.5
0.0623547 0.0189945 0.00193905 0.5
0.0623547 0.0189945 -0.00193905 0.5
0.0623858 0.01887 0.0025 0.5
0.0623858 0.01887 -0.0025 0.5
0.0623547 0.0189945 0.0025 0.5
0.0623547 0.0189945 -0.0025 0.5
0.0652859 0.0002775 0.0025 0.5
0.0652859 0.0002775 -0.0025 0.5
0.0624116 0.019425 -1.01072e-18 0.5
0.062453 0.0197573 0.00149665 0.5
0.062453 0.0197573 -0.00149665 0.5
0.062453 0.0197573 -0.0025 0.5
0.062453 0.0197573 0.0025 0.5
0.0655638 0.000555 -0.0025 0.5
0.0655638 0.000555 0.0025 0.5
0.0625775 0.01998 0.0025 0.5
0.0625775 0.01998 -0.0025 0.5
0.0625772 0.0203268 0.0025 0.5
0.0625772 0.0203268 -0.0025 0.5
0.0626047 0.0205177 3.30818e-19 0.5
0.0658416 0.0002775 0.0025 0.5
0.0658416 0.0002775 -0.0025 0.5
0.0626292 0.0206912 0.0025 0.5
0.0626292 0.0206912 -0.0025 0.5
0.0661194 0.0002775 -1.81913e-21 0.5
0.0627482 0.02109 0.0025 0.5
0.0627482 0.02109 -0.0025 0.5
0.0663972 0.0002775 0.0025 0.5
0.0663972 0.0002775 -0.0025 0.5
0.0628655 0.0216166 -2.68998e-19 0.5
0.0628626 0.0215681 0.0025 0.5
0.0628626 0.0215681 -0.0025 0.5
0.0628834 0.0217427 0.0025 0.5
0.0628834 0.0217427 -0.0025 0.5
0.066675 0.000555 -0.0025 0.5
0.066675 0.000555 0.0025 0.5
0.0629013 0.0222 0.0025 0.5
0.0629013 0.0222 -0.0025 0.5
0.0630503 0.0225842 -3.25734e-19 0.5
0.0630422 0.0224987 0.0025 0.5
0.0630422 0.0224987 -0.0025 0.5
0.0669528 0.0002775 0.0025 0.5
0.0669528 0.0002775 -0.0025 0.5
0.0630933 0.0230623 -0.00138442 0.5
0.0630933 0.0230623 0.00138442 0.5
0.0630933 0.0230623 0.0025 0.5
0.0630933 0.0230623 -0.0025 0.5
0.0672306 0.0002775 9.10876e-20 0.5
0.0630383 0.02331 0.0025 0.5
0.0630383 0.02331 -0.0025 0.5
0.0631618 0.0234893 0.00169246 0.5
0.0631618 0.0234893 -0.00169246 0.5
0.0631618 0.0234893 0.0025 0.5
0.0631618 0.0234893 -0.0025 0.5
0.0631897 0.023865 -7.32081e-19 0.5
0.0675084 0.0002775 0.0025 0.5
0.0675084 0.0002775 -0.0025 0.5
0.0632165 0.0242954 -0.00193869 0.5
0.0632165 0.0242954 0.00193869 0.5
0.0631574 0.02442 0.0025 0.5
0.0631574 0.02442 -0.0025 0.5
0.0632165 0.0242954 0.0025 0.5
0.0632165 0.0242954 -0.0025 0.5
0.0677863 0.000555 -0.0025 0.5
0.0677863 0.000555 0.0025 0.5
0.0632427 0.0245185 0.0020565 0.5
0.0632427 0.0245185 -0.0020565 0.5
0.0632427 0.0245185 0.0025 0.5
0.0632427 0.0245185 -0.0025 0.5
0.063268 0.024975 2.60619e-18 0.5
0.0680641 0.0002775 0.0025 0.5
0.0680641 0.0002775 -0.0025 0.5
0.0632956 0.02553 -0.0025 0.5
0.0632956 0.02553 0.0025 0.5
0.0633142 0.0255029 -0.00237807 0.5
0.0633142 0.0255029 0.00237807 0.5
0.0633142 0.0255029 -0.0025 0.5
0.0633142 0.0255029 0.0025 0.5
0.063318 0.0255532 -0.00239548 0.5
0.063318 0.0255532 0.00239548 0.5
0.063318 0.0255532 -0.0025 0.5
0.063318 0.0255532 0.0025 0.5
0.0683419 0.0002775 1.14121e-19 0.5
0.0633413 0.0257607 -0.0025 0.5
0.0633413 0.0257607 0.0025 0.5
0.0633656 0.026085 -1.42049e-18 0.5
0.0686197 0.0002775 0.0025 0.5
0.0686197 0.0002775 -0.0025 0.5
0.0634266 0.0265547 -0.00211584 0.5
0.0634266 0.0265547 0.00211584 0.5
0.0634266 0.0265547 0.0025 0.5
0.0634266 0.0265547 -0.0025 0.5
0.0635131 0.02664 0.0025 0.5
0.0635131 0.02664 -0.0025 0.5
0.0634796 0.0267782 -0.00187754 0.5
0.0634796 0.0267782 0.00187754 0.5
0.0634796 0.0267782 0.0025 0.5
0.0634796 0.0267782 -0.0025 0.5
0.0688975 0.000555 -0.0025 0.5
0.0688975 0.000555 0.0025 0.5
0.0635451 0.027195 -1.43987e-20 0.5
0.0691753 0.0002775 0.0025 0.5
0.0691753 0.0002775 -0.0025 0.5
0.0635824 0.0275091 -0.00141486 0.5
0.0635824 0.0275091 0.00141486 0.5
0.0635824 0.0275091 0.0025 0.5
0.0635824 0.0275091 -0.0025 0.5
0.0694531 0.0002775 9.36031e-20 0.5
0.063729 0.02775 0.0025 0.5
0.063729 0.02775 -0.0025 0.5
0.0637398 0.0281481 -0.0025 0.5
0.0637398 0.0281481 0.0025 0.5
0.0697309 0.0002775 0.0025 0.5
0.0697309 0.0002775 -0.0025 0.5
0.0637717 0.0283472 -4.04543e-20 0.5
0.0637778 0.028424 -0.0025 0.5
0.0637778 0.028424 0.0025 0.5
0.0700088 0.000555 -0.0025 0.5
0.0700088 0.000555 0.0025 0.5
0.063898 0.02886 0.0025 0.5
0.063898 0.02886 -0.0025 0.5
0.0702866 0.0002775 0.0025 0.5
0.0702866 0.0002775 -0.0025 0.5
0.0640192 0.0292928 -0.0025 0.5
0.0640192 0.0292928 0.0025 0.5
0.0640348 0.0294257 -9.89302e-19 0.5
0.0705644 0.0002775 2.66209e-19 0.5
0.0640512 0.0295691 -0.0025 0.5
0.0640512 0.0295691 0.0025 0.5
0.0640454 0.02997 0.0025 0.5
0.0640454 0.02997 -0.0025 0.5
0.0708422 0.0002775 0.0025 0.5
0.0708422 0.0002775 -0.0025 0.5
0.0641848 0.0302374 0.00129545 0.5
0.0641848 0.0302374 -0.00129545 0.5
0.0641848 0.0302374 0.0025 0.5
0.0641848 0.0302374 -0.0025 0.5
0.0642109 0.030525 1.24846e-18 0.5
0.07112 0.000555 -0.0025 0.5
0.07112 0.000555 0.0025 0.5
0.0642382 0.030866 -0.00153585 0.5
0.0642382 0.030866 0.00153585 0.5
0.0642382 0.030866 0.0025 0.5
0.0642382 0.030866 -0.0025 0.5
0.0641777 0.03108 0.0025 0.5
0.0641777 0.03108 -0.0025 0.5
0.0713978 0.0002775 0.0025 0.5
0.0713978 0.0002775 -0.0025 0.5
0.0642935 0.0312388 0.00178454 0.5
0.0642935 0.0312388 -0.00178454 0.5
0.0642935 0.0312388 0.0025 0.5
0.0642935 0.0312388 -0.0025 0.5
0.0716756 0.0002775 9.36031e-20 0.5
0.0643208 0.031635 -3.58306e-20 0.5
0.0643518 0.0320894 -0.00204681 0.5
0.0643518 0.0320894 0.00204681 0.5
0.0643007 0.03219 0.0025 0.5
0.0643007 0.03219 -0.0025 0.5
0.0643518 0.0320894 0.0025 0.5
0.0643518 0.0320894 -0.0025 0.5
0.0719534 0.0002775 0.0025 0.5
0.0719534 0.0002775 -0.0025 0.5
0.0643745 0.0322679 0.00214924 0.5
0.0643745 0.0322679 -0.00214924 0.5
0.0643745 0.0322679 0.0025 0.5
0.0643745 0.0322679 -0.0025 0.5
0.0644032 0.032745 5.27241e-21 0.5
0.0722313 0.000555 -0.0025 0.5
0.0722313 0.000555 0.0025 0.5
0.0725091 0.0002775 0.0025 0.5
0.0725091 0.0002775 -0.0025 0.5
0.0644525 0.0332959 0.0025 0.5
0.0644525 0.0332959 -0.0025 0.5
0.0644528 0.0332997 -0.00249875 0.5
0.0644528 0.0332997 0.00249875 0.5
0.0644528 0.0332997 0.0025 0.5
0.0644528 0.0332997 -0.0025 0.5
0.0644529 0.0333004 -0.0024984 0.5
0.0644529 0.0333004 0.0024984 0.5
0.0644529 0.0333004 0.0025 0.5
0.0644529 0.0333004 -0.0025 0.5
0.0644531 0.0333 0.0025 0.5
0.0644531 0.0333 -0.0025 0.5
0.0727869 0.0002775 1.145e-19 0.5
0.0645053 0.033855 -2.24788e-20 0.5
0.0730647 0.0002775 0.0025 0.5
0.0730647 0.0002775 -0.0025 0.5
0.0645189 0.0343436 -0.00220108 0.5
0.0645189 0.0343436 0.00220108 0.5
0.0645189 0.0343436 0.0025 0.5
0.0645189 0.0343436 -0.0025 0.5
0.0645228 0.0344802 -0.00218391 0.5
0.0645228 0.0344802 0.00218391 0.5
0.0645228 0.0344802 0.0025 0.5
0.0645228 0.0344802 -0.0025 0.5
0.0645726 0.03441 0.0025 0.5
0.0645726 0.03441 -0.0025 0.5
0.0733425 0.000555 -0.0025 0.5
0.0733425 0.000555 0.0025 0.5
0.0645362 0.034965 3.36158e-20 0.5
0.0736203 0.0002775 0.0025 0.5
0.0736203 0.0002775 -0.0025 0.5
0.0645709 0.0354017 -0.00196731 0.5
0.0645709 0.0354017 0.00196731 0.5
0.0645709 0.0354017 0.0025 0.5
0.0645709 0.0354017 -0.0025 0.5
0.0646744 0.03552 0.0025 0.5
0.0646744 0.03552 -0.0025 0.5
0.0646198 0.0356871 -0.00174708 0.5
0.0646198 0.0356871 0.00174708 0.5
0.0646198 0.0356871 0.0025 0.5
0.0646198 0.0356871 -0.0025 0.5
0.0738981 0.0002775 1.12679e-19 0.5
0.0646563 0.036075 -7.96769e-19 0.5
0.0741759 0.0002775 0.0025 0.5
0.0741759 0.0002775 -0.0025 0.5
0.064681 0.0364017 0.00147178 0.5
0.064681 0.0364017 -0.00147178 0.5
0.064681 0.0364017 0.0025 0.5
0.064681 0.0364017 -0.0025 0.5
0.0648121 0.03663 0.0025 0.5
0.0648121 0.03663 -0.0025 0.5
0.0744538 0.000555 -0.0025 0.5
0.0744538 0.000555 0.0025 0.5
0.0647702 0.0369473 0.0025 0.5
0.0647702 0.0369473 -0.0025 0.5
0.0647891 0.0371731 1.18678e-20 0.5
0.0747316 0.0002775 0.0025 0.5
0.0747316 0.0002775 -0.0025 0.5
0.0648059 0.037387 -0.0025 0.5
0.0648059 0.037387 0.0025 0.5
0.0750094 0.0002775 1.14375e-19 0.5
0.0649232 0.03774 0.0025 0.5
0.0649232 0.03774 -0.0025 0.5
0.0752872 0.0002775 0.0025 0.5
0.0752872 0.0002775 -0.0025 0.5
0.0649358 0.0382227 0.0025 0.5
0.0649358 0.0382227 -0.0025 0.5
0.0649463 0.0383327 1.06489e-18 0.5
0.0649461 0.038357 0.0025 0.5
0.0649461 0.038357 -0.0025 0.5
0.075565 0.000555 -0.0025 0.5
0.075565 0.000555 0.0025 0.5
0.0650134 0.03885 0.0025 0.5
0.0650134 0.03885 -0.0025 0.5
0.0758428 0.0002775 0.0025 0.5
0.0758428 0.0002775 -0.0025 0.5
0.0650873 0.0393259 0.0025 0.5
0.0650873 0.0393259 -0.0025 0.5
0.0650924 0.0394084 5.66457e-22 0.5
0.0761206 0.0002775 1.14623e-19 0.5
0.0650974 0.0394942 0.0025 0.5
0.0650974 0.0394942 -0.0025 0.5
0.0650862 0.03996 0.0025 0.5
0.0650862 0.03996 -0.0025 0.5
0.0763984 0.0002775 0.0025 0.5
0.0763984 0.0002775 -0.0025 0.5
0.0651837 0.0403396 0.0025 0.5
0.0651837 0.0403396 -0.0025 0.5
0.0766763 0.000555 -0.0025 0.5
0.0766763 0.000555 0.0025 0.5
0.0651918 0.0405202 -3.45425e-21 0.5
0.0651994 0.0407061 0.0025 0.5
0.0651994 0.0407061 -0.0025 0.5
0.0769541 0.0002775 0.0025 0.5
0.0769541 0.0002775 -0.0025 0.5
0.0651435 0.04107 0.0025 0.5
0.0651435 0.04107 -0.0025 0.5
0.0772319 0.0002775 1.08196e-19 0.5
0.0652487 0.0413847 0.0025 0.5
0.0652487 0.0413847 -0.0025 0.5
0.0652566 0.04163 4.95551e-21 0.5
0.0775097 0.0002775 0.0025 0.5
0.0775097 0.0002775 -0.0025 0.5
0.0652638 0.0418804 0.0025 0.5
0.0652638 0.0418804 -0.0025 0.5
0.0651872 0.04218 0.0025 0.5
0.0651872 0.04218 -0.0025 0.5
0.0777875 0.000555 -0.0025 0.5
0.0777875 0.000555 0.0025 0.5
0.0652927 0.0424507 0.00128049 0.5
0.0652927 0.0424507 -0.00128049 0.5
0.0652927 0.0424507 0.0025 0.5
0.0652927 0.0424507 -0.0025 0.5
0.0652997 0.042735 -1.30378e-20 0.5
0.0780653 0.0002775 0.0025 0.5
0.0780653 0.0002775 -0.0025 0.5
0.0653048 0.0430313 -0.00133475 0.5
0.0653048 0.0430313 0.00133475 0.5
0.0653048 0.0430313 0.0025 0.5
0.0653048 0.0430313 -0.0025 0.5
0.0652186 0.04329 0.0025 0.5
0.0652186 0.04329 -0.0025 0.5
0.0783431 0.0002775 8.26565e-20 0.5
0.0653215 0.043532 0.00140997 0.5
0.0653215 0.043532 -0.00140997 0.5
0.0653215 0.043532 0.0025 0.5
0.0653215 0.043532 -0.0025 0.5
0.0786209 0.0002775 0.0025 0.5
0.0786209 0.0002775 -0.0025 0.5
0.0653266 0.043845 -2.67536e-20 0.5
0.0653298 0.0441663 -0.00144729 0.5
0.0653298 0.0441663 0.00144729 0.5
0.0653298 0.0441663 -0.0025 0.5
0.0653298 0.0441663 0.0025 0.5
0.0788988 0.000555 -0.0025 0.5
0.0788988 0.000555 0.0025 0.5
0.065239 0.0444 0.0025 0.5
0.065239 0.0444 -0.0025 0.5
0.0653387 0.0446248 0.00148738 0.5
0.0653387 0.0446248 -0.00148738 0.5
0.0653387 0.0446248 0.0025 0.5
0.0653387 0.0446248 -0.0025 0.5
0.0791766 0.0002775 0.0025 0.5
0.0791766 0.0002775 -0.0025 0.5
0.0653419 0.044955 -2.51037e-18 0.5
0.0794544 0.0002775 9.54222e-20 0.5
0.0653435 0.04529 0.0015092 0.5
0.0653435 0.04529 -0.0015092 0.5
0.0653435 0.04529 0.0025 0.5
0.0653435 0.04529 -0.0025 0.5
0.0652506 0.04551 0.0025 0.5
0.0652506 0.04551 -0.0025 0.5
0.0653479 0.0457256 0.00152864 0.5
0.0653479 0.0457256 -0.00152864 0.5
0.0797322 0.0002775 0.0025 0.5
0.0797322 0.0002775 -0.0025 0.5
0.0653479 0.0457256 0.0025 0.5
0.0653479 0.0457256 -0.0025 0.5
0.0653495 0.046065 8.14634e-19 0.5
0.08001 0.000555 -0.0025 0.5
0.08001 0.000555 0.0025 0.5
0.06535 0.0464065 -0.00153833 0.5
0.06535 0.0464065 0.00153833 0.5
0.06535 0.0464065 0.0025 0.5
0.06535 0.0464065 -0.0025 0.5
0.0652557 0.04662 0.0025 0.5
0.0652557 0.04662 -0.0025 0.5
0.0802878 0.0002775 0.0025 0.5
0.0802878 0.0002775 -0.0025 0.5
0.0653512 0.0468323 0.00154369 0.5
0.0653512 0.0468323 -0.00154369 0.5
0.0653512 0.0468323 0.0025 0.5
0.0653512 0.0468323 -0.0025 0.5
0.0805656 0.0002775 1.15842e-19 0.5
0.0653517 0.047175 1.76312e-18 0.5
0.0653501 0.0475166 -0.00153888 0.5
0.0653501 0.0475166 0.00153888 0.5
0.0653501 0.0475166 0.0025 0.5
0.0653501 0.0475166 -0.0025 0.5
0.0808434 0.0002775 0.0025 0.5
0.0808434 0.0002775 -0.0025 0.5
0.0652531 0.04773 0.0025 0.5
0.0652531 0.04773 -0.0025 0.5
0.0653462 0.0479473 0.00152125 0.5
0.0653462 0.0479473 -0.00152125 0.5
0.0653462 0.0479473 0.0025 0.5
0.0653462 0.0479473 -0.0025 0.5
0.0811213 0.000555 -0.0025 0.5
0.0811213 0.000555 0.0025 0.5
0.0653447 0.048285 -4.17483e-21 0.5
0.0813991 0.0002775 0.0025 0.5
0.0813991 0.0002775 -0.0025 0.5
0.0653411 0.0486176 0.00149817 0.5
0.0653411 0.0486176 -0.00149817 0.5
0.0653411 0.0486176 0.0025 0.5
0.0653411 0.0486176 -0.0025 0.5
0.0652409 0.04884 0.0025 0.5
0.0652409 0.04884 -0.0025 0.5
0.0816769 0.0002775 9.5745e-20 0.5
0.0653312 0.0490723 0.00145355 0.5
0.0653312 0.0490723 -0.00145355 0.5
0.0653312 0.0490723 0.0025 0.5
0.0653312 0.0490723 -0.0025 0.5
0.0653276 0.049395 1.42842e-20 0.5
0.0819547 0.0002775 0.0025 0.5
0.0819547 0.0002775 -0.0025 0.5
0.0653223 0.0497088 0.00141356 0.5
0.0653223 0.0497088 -0.00141356 0.5
0.0653223 0.0497088 0.0025 0.5
0.0653223 0.0497088 -0.0025 0.5
0.0652191 0.04995 -0.0025 0.5
0.0652191 0.04995 0.0025 0.5
0.0822325 0.000555 -0.0025 0.5
0.0822325 0.000555 0.0025 0.5
0.065305 0.0502084 0.00133584 0.5
0.065305 0.0502084 -0.00133584 0.5
0.065305 0.0502084 0.0025 0.5
0.065305 0.0502084 -0.0025 0.5
0.0825103 0.0002775 0.0025 0.5
0.0825103 0.0002775 -0.0025 0.5
0.0652998 0.050505 -1.76823e-19 0.5
0.0652929 0.0507895 0.00128142 0.5
0.0652929 0.0507895 -0.00128142 0.5
0.0652929 0.0507895 0.0025 0.5
0.0652929 0.0507895 -0.0025 0.5
0.0827881 0.0002775 8.32524e-20 0.5
0.0651877 0.05106 0.0025 0.5
0.0651877 0.05106 -0.0025 0.5
0.0652647 0.0513587 0.0025 0.5
0.0652647 0.0513587 -0.0025 0.5
0.0830659 0.0002775 0.0025 0.5
0.0830659 0.0002775 -0.0025 0.5
0.0652578 0.0516102 -3.28139e-19 0.5
0.0833437 0.000555 -0.0025 0.5
0.0833437 0.000555 0.0025 0.5
0.0652504 0.051857 0.0025 0.5
0.0652504 0.051857 -0.0025 0.5
0.0651464 0.05217 0.0025 0.5
0.0651464 0.05217 -0.0025 0.5
0.0836216 0.0002775 0.0025 0.5
0.0836216 0.0002775 -0.0025 0.5
0.0652058 0.0525276 0.0025 0.5
0.0652058 0.0525276 -0.0025 0.5
0.0651988 0.0527202 2.13676e-18 0.5
0.0838994 0.0002775 3.228e-22 0.5
0.0651915 0.0529082 0.0025 0.5
0.0651915 0.0529082 -0.0025 0.5
0.0650959 0.05328 -0.0025 0.5
0.0650959 0.05328 0.0025 0.5
0.0841772 0.0002775 0.0025 0.5
0.0841772 0.0002775 -0.0025 0.5
0.0651221 0.0537212 0.0025 0.5
0.0651221 0.0537212 -0.0025 0.5
0.065117 0.0538316 -4.76947e-18 0.5
0.084455 0.000555 -0.0025 0.5
0.084455 0.000555 0.0025 0.5
0.0651118 0.0539386 0.0025 0.5
0.0651118 0.0539386 -0.0025 0.5
0.0847328 0.0002775 0.0025 0.5
0.0847328 0.0002775 -0.0025 0.5
0.0650375 0.05439 0.0025 0.5
0.0650375 0.05439 -0.0025 0.5
0.0850106 0.0002775 0 0.5
0.065005 0.0549426 2.56922e-18 0.5
0.0650049 0.0549418 0.0025 0.5
0.0650049 0.0549418 -0.0025 0.5
0.0650045 0.0549486 0.0025 0.5
0.0650045 0.0549486 -0.0025 0.5
0.0852884 0.0002775 0.0025 0.5
0.0852884 0.0002775 -0.0025 0.5
0.0649725 0.0555 0.0025 0.5
0.0649725 0.0555 -0.0025 0.5
0.0855663 0.000555 -0.0025 0.5
0.0855663 0.000555 0.0025 0.5
0.064891 0.055938 0.0025 0.5
0.064891 0.055938 -0.0025 0.5
0.0648843 0.0560595 3.74801e-20 0.5
0.0648774 0.0561856 0.0025 0.5
0.0648774 0.0561856 -0.0025 0.5
0.0858441 0.0002775 0.0025 0.5
0.0858441 0.0002775 -0.0025 0.5
0.0861219 0.0002775 0 0.5
0.064904 0.05661 0.0025 0.5
0.064904 0.05661 -0.0025 0.5
0.0647966 0.0569537 0.0025 0.5
0.0647966 0.0569537 -0.0025 0.5
0.0647857 0.0571723 -5.80664e-20 0.5
0.0863997 0.0002775 0.0025 0.5
0.0863997 0.0002775 -0.0025 0.5
0.0647746 0.0573983 0.0025 0.5
0.0647746 0.0573983 -0.0025 0.5
0.0866775 0.000555 -0.0025 0.5
0.0866775 0.000555 0.0025 0.5
0.0648353 0.05772 -0.0025 0.5
0.0648353 0.05772 0.0025 0.5
0.0647196 0.0579868 -0.00129829 0.5
0.0647196 0.0579868 0.00129829 0.5
0.0647196 0.0579868 -0.0025 0.5
0.0647196 0.0579868 0.0025 0.5
0.0869553 0.0002775 0.0025 0.5
0.0869553 0.0002775 -0.0025 0.5
0.0647067 0.058275 2.70337e-18 0.5
0.0872331 0.0002775 0 0.5
0.0646936 0.0585892 -0.00141522 0.5
0.0646936 0.0585892 0.00141522 0.5
0.0646936 0.0585892 0.0025 0.5
0.0646936 0.0585892 -0.0025 0.5
0.0647695 0.05883 -0.0025 0.5
0.0647695 0.05883 0.0025 0.5
0.0875109 0.0002775 0.0025 0.5
0.0875109 0.0002775 -0.0025 0.5
0.0646578 0.0590351 -0.00157612 0.5
0.0646578 0.0590351 0.00157612 0.5
0.0646578 0.0590351 0.0025 0.5
0.0646578 0.0590351 -0.0025 0.5
0.0646443 0.059385 -5.30305e-18 0.5
0.0877888 0.000555 -0.0025 0.5
0.0877888 0.000555 0.0025 0.5
0.0646313 0.0597614 -0.00169568 0.5
0.0646313 0.0597614 0.00169568 0.5
0.0646313 0.0597614 0.0025 0.5
0.0646313 0.0597614 -0.0025 0.5
0.0880666 0.0002775 -0.00125 0.5
0.0880666 0.0002775 0.00125 0.5
0.0880666 0.0002775 0.0025 0.5
0.0880666 0.0002775 -0.0025 0.5
0.064709 0.05994 -0.0025 0.5
0.064709 0.05994 0.0025 0.5
0.0646088 0.0600961 0.00179681 0.5
0.0646088 0.0600961 -0.00179681 0.5
0.0646088 0.0600961 0.0025 0.5
0.0646088 0.0600961 -0.0025 0.5
0.0883444 0.0002775 0 0.5
0.0883444 0.00111 0.0025 0.5
0.0883444 0.00111 -0.0025 0.5
0.0883444 0.00222 0.0025 0.5
0.0883444 0.00222 -0.0025 0.5
0.0883444 0.00333 0.0025 0.5
0.0883444 0.00333 -0.0025 0.5
0.0883444 0.00444 0.0025 0.5
0.0883444 0.00444 -0.0025 0.5
0.0645958 0.060495 2.43438e-18 0.5
0.0883444 0.00555 0.0025 0.5
0.0883444 0.00555 -0.0025 0.5
0.0886222 0.000555 0 0.5
0.0883444 0.00666 0.0025 0.5
0.0883444 0.00666 -0.0025 0.5
0.0886222 0.0002775 -0.00125 0.5
0.0886222 0.0002775 0.00125 0.5
0.0886222 0.0008325 0.00125 0.5
0.0886222 0.0008325 -0.00125 0.5
0.0886222 0.001665 0 0.5
0.0886222 0.0002775 0.0025 0.5
0.0886222 0.0002775 -0.0025 0.5
0.0886222 0.0008325 0.0025 0.5
0.0886222 0.0008325 -0.0025 0.5
0.0886222 0.002775 0 0.5
0.0886222 0.0013875 0.0025 0.5
0.0886222 0.0013875 -0.0025 0.5
0.0886222 0.0019425 0.0025 0.5
0.0886222 0.0019425 -0.0025 0.5
0.0886222 0.0024975 0.0025 0.5
0.0886222 0.0024975 -0.0025 0.5
0.0886222 0.003885 0 0.5
0.0886222 0.0030525 0.0025 0.5
0.0886222 0.0030525 -0.0025 0.5
0.0883444 0.00777 0.0025 0.5
0.0883444 0.00777 -0.0025 0.5
0.0886222 0.0036075 0.0025 0.5
0.0886222 0.0036075 -0.0025 0.5
0.0886222 0.0041625 0.0025 0.5
0.0886222 0.0041625 -0.0025 0.5
0.0886222 0.004995 -1.81603e-19 0.5
0.0886222 0.0047175 0.0025 0.5
0.0886222 0.0047175 -0.0025 0.5
0.0645838 0.0609188 -0.0019091 0.5
0.0645838 0.0609188 0.0019091 0.5
0.0886222 0.0052725 0.0025 0.5
0.0886222 0.0052725 -0.0025 0.5
0.0645838 0.0609188 0.0025 0.5
0.0645838 0.0609188 -0.0025 0.5
0.0883444 0.00888 0.0025 0.5
0.0883444 0.00888 -0.0025 0.5
0.0886222 0.006105 -4.31797e-21 0.5
0.0886222 0.0058275 0.0025 0.5
0.0886222 0.0058275 -0.0025 0.5
0.0886222 0.0063825 0.0025 0.5
0.0886222 0.0063825 -0.0025 0.5
0.0886222 0.007215 3.76366e-21 0.5
0.0886222 0.0069375 -0.0025 0.5
0.0886222 0.0069375 0.0025 0.5
0.0883444 0.00999 0.0025 0.5
0.0883444 0.00999 -0.0025 0.5
0.0646554 0.06105 -0.0025 0.5
0.0646554 0.06105 0.0025 0.5
0.0645701 0.0611675 -0.00197069 0.5
0.0645701 0.0611675 0.00197069 0.5
0.0886222 0.0074925 -0.0025 0.5
0.0886222 0.0074925 0.0025 0.5
0.0645701 0.0611675 0.0025 0.5
0.0645701 0.0611675 -0.0025 0.5
0.0886222 0.008325 1.10296e-21 0.5
0.0886222 0.0080475 -0.0025 0.5
0.0886222 0.0080475 0.0025 0.5
0.0886222 0.0086025 -0.0025 0.5
0.0886222 0.0086025 0.0025 0.5
0.0883444 0.0111 0.0025 0.5
0.0883444 0.0111 -0.0025 0.5
0.0886222 0.009435 1.92878e-21 0.5
0.0886222 0.0091575 0.0025 0.5
0.0886222 0.0091575 -0.0025 0.5
0.0886222 0.0097125 0.0025 0.5
0.0886222 0.0097125 -0.0025 0.5
0.0883444 0.01221 0.0025 0.5
0.0883444 0.01221 -0.0025 0.5
0.0645584 0.061605 3.54621e-20 0.5
0.0886222 0.010545 3.88923e-21 0.5
0.0886222 0.0102675 0.0025 0.5
0.0886222 0.0102675 -0.0025 0.5
0.0886222 0.0108225 0.0025 0.5
0.0886222 0.0108225 -0.0025 0.5
0.0883444 0.01332 0.0025 0.5
0.0883444 0.01332 -0.0025 0.5
0.0886222 0.0113775 0.0025 0.5
0.0886222 0.0113775 -0.0025 0.5
0.0886222 0.011655 2.78619e-21 0.5
0.0886222 0.0119325 0.0025 0.5
0.0886222 0.0119325 -0.0025 0.5
0.0886222 0.0124875 -0.0025 0.5
0.0886222 0.0124875 0.0025 0.5
0.0886222 0.012765 1.81655e-19 0.5
0.0883444 0.01443 0.0025 0.5
0.0883444 0.01443 -0.0025 0.5
0.0645481 0.0620645 -0.00206966 0.5
0.0645481 0.0620645 0.00206966 0.5
0.0645481 0.0620645 -0.0025 0.5
0.0645481 0.0620645 0.0025 0.5
0.0886222 0.0130425 -0.0025 0.5
0.0886222 0.0130425 0.0025 0.5
0.0646096 0.06216 0.0025 0.5
0.0646096 0.06216 -0.0025 0.5
0.0645401 0.0622475 -0.0021057 0.5
0.0645401 0.0622475 0.0021057 0.5
0.0886222 0.0135975 0.0025 0.5
0.0886222 0.0135975 -0.0025 0.5
0.0886222 0.013875 0 0.5
0.0645401 0.0622475 0.0025 0.5
0.0645401 0.0622475 -0.0025 0.5
0.0883444 0.01554 0.0025 0.5
0.0883444 0.01554 -0.0025 0.5
0.0886222 0.0141525 0.0025 0.5
0.0886222 0.0141525 -0.0025 0.5
0.0886222 0.0147075 -0.0025 0.5
0.0886222 0.0147075 0.0025 0.5
0.0886222 0.014985 7.52748e-21 0.5
0.0883444 0.01665 0.0025 0.5
0.0883444 0.01665 -0.0025 0.5
0.0886222 0.0152625 -0.0025 0.5
0.0886222 0.0152625 0.0025 0.5
0.0645301 0.062715 1.31261e-19 0.5
0.0886222 0.0158175 0.0025 0.5
0.0886222 0.0158175 -0.0025 0.5
0.0886222 0.016095 0 0.5
0.0883444 0.01776 0.0025 0.5
0.0883444 0.01776 -0.0025 0.5
0.0886222 0.0163725 0.0025 0.5
0.0886222 0.0163725 -0.0025 0.5
0.0886222 0.0169275 0.0025 0.5
0.0886222 0.0169275 -0.0025 0.5
0.0886222 0.017205 0 0.5
0.0645216 0.0632009 -0.00218888 0.5
0.0645216 0.0632009 0.00218888 0.5
0.0645216 0.0632009 0.0025 0.5
0.0645216 0.0632009 -0.0025 0.5
0.0886222 0.0174825 0.0025 0.5
0.0886222 0.0174825 -0.0025 0.5
0.0883444 0.01887 0.0025 0.5
0.0883444 0.01887 -0.0025 0.5
0.0645171 0.0633345 -0.0022095 0.5
0.0645171 0.0633345 0.0022095 0.5
0.0645717 0.06327 0.0025 0.5
0.0645717 0.06327 -0.0025 0.5
0.0645171 0.0633345 0.0025 0.5
0.0645171 0.0633345 -0.0025 0.5
0.0886222 0.0180375 0.0025 0.5
0.0886222 0.0180375 -0.0025 0.5
0.0886222 0.018315 -4.24739e-19 0.5
0.0886222 0.0185925 0.0025 0.5
0.0886222 0.0185925 -0.0025 0.5
0.0883444 0.01998 0.0025 0.5
0.0883444 0.01998 -0.0025 0.5
0.0886222 0.0191475 0.0025 0.5
0.0886222 0.0191475 -0.0025 0.5
0.0886222 0.019425 2.54579e-19 0.5
0.0645088 0.063825 0 0.5
0.0886222 0.0197025 0.0025 0.5
0.0886222 0.0197025 -0.0025 0.5
0.0883444 0.02109 0.0025 0.5
0.0883444 0.02109 -0.0025 0.5
0.0886222 0.0202575 0.0025 0.5
0.0886222 0.0202575 -0.0025 0.5
0.0886222 0.020535 -4.2863e-21 0.5
0.0886222 0.0208125 0.0025 0.5
0.0886222 0.0208125 -0.0025 0.5
0.0883444 0.0222 0.0025 0.5
0.0883444 0.0222 -0.0025 0.5
0.0645004 0.0643321 -0.0022843 0.5
0.0645004 0.0643321 0.0022843 0.5
0.0645004 0.0643321 0.0025 0.5
0.0645004 0.0643321 -0.0025 0.5
0.0644974 0.0644249 -0.00229783 0.5
0.0644974 0.0644249 0.00229783 0.5
0.0645381 0.06438 0.0025 0.5
0.0645381 0.06438 -0.0025 0.5
0.0886222 0.0213675 0.0025 0.5
0.0886222 0.0213675 -0.0025 0.5
0.0644974 0.0644249 0.0025 0.5
0.0644974 0.0644249 -0.0025 0.5
0.0886222 0.021645 -2.44648e-21 0.5
0.0886222 0.0219225 0.0025 0.5
0.0886222 0.0219225 -0.0025 0.5
0.0883444 0.02331 0.0025 0.5
0.0883444 0.02331 -0.0025 0.5
0.0886222 0.0224775 0.0025 0.5
0.0886222 0.0224775 -0.0025 0.5
0.0886222 0.022755 -2.49561e-19 0.5
0.0644893 0.064935 0 0.5
0.0886222 0.0230325 0.0025 0.5
0.0886222 0.0230325 -0.0025 0.5
0.0883444 0.02442 0.0025 0.5
0.0883444 0.02442 -0.0025 0.5
0.0886222 0.0235875 0.0025 0.5
0.0886222 0.0235875 -0.0025 0.5
0.0886222 0.023865 4.33092e-19 0.5
0.0886222 0.0241425 0.0025 0.5
0.0886222 0.0241425 -0.0025 0.5
0.0645218 0.0654208 -0.00218836 0.5
0.0645218 0.0654208 0.00218836 0.5
0.0645218 0.0654208 0.0025 0.5
0.0645218 0.0654208 -0.0025 0.5
0.0883444 0.02553 0.0025 0.5
0.0883444 0.02553 -0.0025 0.5
0.0645911 0.06549 0.0025 0.5
0.0645911 0.06549 -0.0025 0.5
0.0886222 0.0246975 -0.0025 0.5
0.0886222 0.0246975 0.0025 0.5
0.0645449 0.0655823 -0.00208432 0.5
0.0645449 0.0655823 0.00208432 0.5
0.0645449 0.0655823 0.0025 0.5
0.0645449 0.0655823 -0.0025 0.5
0.0886222 0.024975 1.19177e-21 0.5
0.0886222 0.0252525 0.0025 0.5
0.0886222 0.0252525 -0.0025 0.5
0.0883444 0.02664 0.0025 0.5
0.0883444 0.02664 -0.0025 0.5
0.0886222 0.0258075 0.0025 0.5
0.0886222 0.0258075 -0.0025 0.5
0.0886222 0.026085 9.22105e-21 0.5
0.0886222 0.0263625 0.0025 0.5
0.0886222 0.0263625 -0.0025 0.5
0.0883444 0.02775 0.0025 0.5
0.0883444 0.02775 -0.0025 0.5
0.0886222 0.0269175 0.0025 0.5
0.0886222 0.0269175 -0.0025 0.5
0.0886222 0.027195 1.2044e-20 0.5
0.0647943 0.0662585 0.0025 0.5
0.0647943 0.0662585 -0.0025 0.5
0.0649511 0.0662443 0 0.5
0.0886222 0.0274725 0.0025 0.5
0.0886222 0.0274725 -0.0025 0.5
0.0883444 0.02886 0.0025 0.5