0 	506.15 	0.000111489
0.000446734 	506.143 	0.000111489
0.000893467 	506.136 	0.000111489
0.0013402 	506.129 	0.000111491
0.00178693 	506.123 	0.000111495
0.00223367 	506.116 	0.000111499
0.0026804 	506.109 	0.000111513
0.00312714 	506.102 	0.000111528
0.00357387 	506.095 	0.00011155
0.0040206 	506.089 	0.000111578
0.00446734 	506.082 	0.000111607
0.00491407 	506.076 	0.000111651
0.0053608 	506.069 	0.000111694
0.00580754 	506.063 	0.000111746
0.00625427 	506.057 	0.000111805
0.00670101 	506.05 	0.000111864
0.00714774 	506.044 	0.000111931
0.00759447 	506.038 	0.000111997
0.00804121 	506.032 	0.000112057
0.00848794 	506.027 	0.000112111
0.00893467 	506.021 	0.000112161
0.00938141 	506.015 	0.000112168
0.00982814 	506.009 	0.000112174
0.0102749 	506.004 	0.000112121
0.0107216 	505.998 	0.00011203
0.0111683 	505.993 	0.000111919
0.0116151 	505.988 	0.000111673
0.0120618 	505.983 	0.000111426
0.0125085 	505.978 	0.000111047
0.0129553 	505.973 	0.000110591
0.013402 	505.968 	0.000110099
0.0138487 	505.963 	0.000109396
0.0142955 	505.958 	0.000108692
0.0147422 	505.953 	0.000107811
0.0151889 	505.949 	0.000106839
0.0156357 	505.944 	0.00010582
0.0160824 	505.94 	0.00010458
0.0165291 	505.936 	0.000103341
0.0169759 	505.931 	0.000101932
0.0174226 	505.927 	0.000100445
0.0178693 	505.923 	9.89162e-05
0.0183161 	505.92 	9.72181e-05
0.0187628 	505.916 	9.552e-05
0.0192095 	505.912 	9.37039e-05
0.0196563 	505.909 	9.18401e-05
0.020103 	505.905 	8.99506e-05
0.0205497 	505.902 	8.79726e-05
0.0209965 	505.898 	8.59945e-05
0.0214432 	505.895 	8.39715e-05
0.0218899 	505.892 	8.19324e-05
0.0223367 	505.889 	7.9891e-05
0.0227834 	505.886 	7.78425e-05
0.0232302 	505.884 	7.5794e-05
0.0236769 	505.881 	7.37746e-05
0.0241236 	505.878 	7.17643e-05
0.0245704 	505.876 	6.97762e-05
0.0250171 	505.874 	6.78463e-05
0.0254638 	505.871 	6.59164e-05
0.0259106 	505.869 	6.40781e-05
0.0263573 	505.867 	6.22646e-05
0.026804 	505.865 	6.04946e-05
0.0272508 	505.863 	5.88266e-05
0.0276975 	505.861 	5.71585e-05
0.0281442 	505.859 	5.56273e-05
0.028591 	505.857 	5.41277e-05
0.0290377 	505.855 	5.26884e-05
0.0294844 	505.854 	5.13742e-05
0.0299312 	505.852 	5.00601e-05
0.0303779 	505.851 	4.89113e-05
0.0308246 	505.849 	4.77945e-05
0.0312714 	505.848 	4.67495e-05
0.0317181 	505.846 	4.58376e-05
0.0321648 	505.845 	4.49256e-05
0.0326116 	505.844 	4.41935e-05
0.0330583 	505.842 	4.349e-05
0.033505 	505.841 	4.28647e-05
0.0339518 	505.84 	4.23697e-05
0.0343985 	505.839 	4.18747e-05
0.0348452 	505.838 	4.15616e-05
0.035292 	505.837 	4.12716e-05
0.0357387 	505.835 	4.10612e-05
0.0361854 	505.834 	4.097e-05
0.0366322 	505.833 	4.08789e-05
0.0370789 	505.832 	4.09617e-05
0.0375256 	505.831 	4.10613e-05
0.0379724 	505.83 	4.12374e-05
0.0384191 	505.829 	4.15173e-05
0.0388658 	505.828 	4.17971e-05
0.0393126 	505.827 	4.22342e-05
0.0397593 	505.825 	4.26818e-05
0.040206 	505.824 	4.31983e-05
0.0406528 	505.823 	4.37989e-05
0.0410995 	505.822 	4.43996e-05
0.0415462 	505.82 	4.51313e-05
0.041993 	505.819 	4.58682e-05
0.0424397 	505.817 	4.66607e-05
0.0428864 	505.816 	4.75148e-05
0.0433332 	505.814 	4.8369e-05
0.0437799 	505.812 	4.93179e-05
0.0442266 	505.81 	5.02681e-05
0.0446734 	505.808 	5.12544e-05
0.0451201 	505.806 	5.22769e-05
0.0455668 	505.804 	5.33e-05
0.0460136 	505.801 	5.43688e-05
0.0464603 	505.798 	5.54375e-05
0.046907 	505.795 	5.65154e-05
0.0473538 	505.792 	5.76017e-05
0.0478005 	505.788 	5.86875e-05
0.0482472 	505.784 	5.97608e-05
0.048694 	505.78 	6.08342e-05
0.0491407 	505.776 	6.18835e-05
0.0495874 	505.771 	6.29131e-05
0.0500342 	505.766 	6.39382e-05
0.0504809 	505.76 	6.48951e-05
0.0509276 	505.754 	6.5852e-05
0.0513744 	505.747 	6.67534e-05
0.0518211 	505.741 	6.76137e-05
0.0522678 	505.734 	6.84642e-05
0.0527146 	505.725 	6.92121e-05
0.0531613 	505.717 	6.996e-05
0.053608 	505.708 	7.06371e-05
0.0540548 	505.699 	7.1267e-05
0.0545015 	505.69 	7.18842e-05
0.0549482 	505.679 	7.24011e-05
0.055395 	505.668 	7.2918e-05
0.0558417 	505.657 	7.33729e-05
0.0562884 	505.645 	7.37906e-05
0.0567352 	505.632 	7.41973e-05
0.0571819 	505.619 	7.45349e-05
0.0576286 	505.606 	7.48725e-05
0.0580754 	505.591 	7.51713e-05
0.0585221 	505.577 	7.54492e-05
0.0589688 	505.562 	7.57204e-05
0.0594156 	505.546 	7.5957e-05
0.0598623 	505.53 	7.61935e-05
0.060309 	505.513 	7.64113e-05
0.0607558 	505.496 	7.662e-05
0.0612025 	505.479 	7.68249e-05
0.0616492 	505.461 	7.70131e-05
0.062096 	505.443 	7.72013e-05
0.0625427 	505.424 	7.7375e-05
0.0629894 	505.405 	7.75426e-05
0.0634362 	505.386 	7.77044e-05
0.0638829 	505.366 	7.7845e-05
0.0643296 	505.346 	7.79856e-05
0.0647764 	505.326 	7.81003e-05
0.0652231 	505.305 	7.82053e-05
0.0656698 	505.285 	7.83012e-05
0.0661166 	505.263 	7.83682e-05
0.0665633 	505.242 	7.84351e-05
0.0670101 	505.221 	7.8481e-05
0.0674568 	505.199 	7.85199e-05
0.0679035 	505.177 	7.85558e-05
0.0683503 	505.155 	7.85833e-05
0.068797 	505.133 	7.86108e-05
0.0692437 	505.111 	7.86369e-05
0.0696905 	505.089 	7.86625e-05
0.0701372 	505.067 	7.86862e-05
0.0705839 	505.044 	7.87051e-05
0.0710307 	505.022 	7.8724e-05
0.0714774 	504.996 	7.87254e-05
0.0719241 	504.971 	7.87224e-05
0.0723709 	504.936 	7.87161e-05
0.0728176 	504.884 	7.87023e-05
0.0732643 	504.831 	7.86885e-05
0.0737111 	504.758 	7.80064e-05
0.0741578 	504.682 	7.71824e-05
0.0746045 	504.605 	7.60847e-05
0.0750513 	504.528 	7.44496e-05
0.075498 	504.451 	7.28145e-05
0.0759447 	504.375 	7.11986e-05
0.0763915 	504.298 	6.95862e-05
0.0768382 	504.221 	6.79922e-05
0.0772849 	504.144 	6.64307e-05
0.0777317 	504.068 	6.48692e-05
0.0781784 	503.991 	6.33726e-05
0.0786251 	503.914 	6.18853e-05
0.0790719 	503.838 	6.04345e-05
0.0795186 	503.761 	5.90416e-05
0.0799653 	503.684 	5.76486e-05
0.0804121 	503.608 	5.63566e-05
0.0808588 	503.531 	5.50759e-05
0.0813055 	503.454 	5.38483e-05
0.0817523 	503.377 	5.26963e-05
0.082199 	503.301 	5.15443e-05
0.0826457 	503.224 	5.05257e-05
0.0830925 	503.147 	4.95178e-05
0.0835392 	503.071 	4.85794e-05
0.0839859 	502.994 	4.77301e-05
0.0844327 	502.917 	4.68809e-05
0.0848794 	502.84 	4.61951e-05
0.0853261 	502.764 	4.55178e-05
0.0857729 	502.687 	4.49255e-05
0.0862196 	502.61 	4.4432e-05
0.0866663 	502.534 	4.39385e-05
0.0871131 	502.457 	4.36334e-05
0.0875598 	502.38 	4.33331e-05
0.0880065 	502.303 	4.313e-05
0.0884533 	502.227 	4.30292e-05
0.0889 	502.15 	4.29283e-05
