0 	0 	0 	0
0.000446734 	-1.24412e-05 	-6.00354e-05 	9.83519e-28
0.000893467 	-2.48823e-05 	-0.000120071 	1.96704e-27
0.0013402 	-3.98128e-05 	-0.000172272 	4.81899e-27
0.00178693 	-5.71113e-05 	-0.000217021 	9.44823e-27
0.00223367 	-7.41833e-05 	-0.000260971 	1.39516e-26
0.0026804 	-8.2424e-05 	-0.00027377 	1.35447e-26
0.00312714 	-9.06647e-05 	-0.000286568 	1.31379e-26
0.00357387 	-8.58219e-05 	-0.000274813 	8.44806e-27
0.0040206 	-6.97212e-05 	-0.000241931 	7.28492e-29
0.00446734 	-5.15706e-05 	-0.000206217 	-8.02449e-27
0.00491407 	5.52767e-06 	-0.000116705 	-1.08424e-26
0.0053608 	6.2626e-05 	-2.71939e-05 	-1.36603e-26
0.00580754 	0.000152349 	9.81805e-05 	-8.213e-27
0.00625427 	0.000267448 	0.000251448 	3.66276e-27
0.00670101 	0.00038802 	0.000409539 	1.58952e-26
0.00714774 	0.000576092 	0.000627106 	3.25269e-26
0.00759447 	0.000764164 	0.000844673 	4.91586e-26
0.00804121 	0.000999884 	0.0010944 	5.12429e-26
0.00848794 	0.00126906 	0.0013667 	4.31132e-26
0.00893467 	0.00154604 	0.0016424 	3.63088e-26
0.00938141 	0.00189329 	0.00194865 	4.14334e-26
0.00982814 	0.00224055 	0.0022549 	4.6558e-26
0.0102749 	0.00262659 	0.00256444 	9.40568e-26
0.0107216 	0.00303718 	0.00287606 	1.68364e-25
0.0111683 	0.00345285 	0.00318464 	2.29838e-25
0.0116151 	0.00390412 	0.00347195 	2.01482e-25
0.0120618 	0.00435538 	0.00375926 	1.73127e-25
0.0125085 	0.00481676 	0.00401561 	5.34104e-26
0.0129553 	0.00528389 	0.00425435 	-1.18257e-25
0.013402 	0.0057501 	0.00448354 	-2.81512e-25
0.0138487 	0.00621113 	0.0046586 	-3.97101e-25
0.0142955 	0.00667215 	0.00483365 	-5.1269e-25
0.0147422 	0.00711831 	0.00496283 	-4.81771e-25
0.0151889 	0.00755689 	0.00506865 	-3.76217e-25
0.0156357 	0.00798977 	0.00516274 	-2.35267e-25
0.0160824 	0.00839581 	0.00520157 	7.25491e-26
0.0165291 	0.00880185 	0.0052404 	3.80365e-25
0.0169759 	0.00918226 	0.00523823 	4.70924e-25
0.0174226 	0.00955103 	0.00521743 	4.62729e-25
0.0178693 	0.00991216 	0.00518667 	4.19497e-25
0.0183161 	0.0102428 	0.0051161 	2.3611e-25
0.0187628 	0.0105734 	0.00504552 	5.27236e-26
0.0192095 	0.0108779 	0.00494689 	0
0.0196563 	0.0111719 	0.00483693 	0
0.020103 	0.0114582 	0.00472031 	-5.27932e-26
0.0205497 	0.0117181 	0.00458069 	-2.8743e-25
0.0209965 	0.011978 	0.00444107 	-5.22066e-25
0.0214432 	0.0122151 	0.00428576 	-8.44491e-25
0.0218899 	0.012444 	0.00412487 	-1.19816e-24
0.0223367 	0.0126659 	0.00396038 	-1.44648e-24
0.0227834 	0.0128668 	0.00378511 	-1.37873e-24
0.0232302 	0.0130676 	0.00360983 	-1.31098e-24
0.0236769 	0.0132491 	0.00342773 	-8.75636e-25
0.0241236 	0.0134245 	0.00324349 	-3.25802e-25
0.0245704 	0.0135936 	0.00305792 	1.86518e-25
0.0250171 	0.0137459 	0.00286885 	5.99936e-25
0.0254638 	0.0138983 	0.00267977 	1.01335e-24
0.0259106 	0.0140339 	0.00248925 	1.0448e-24
0.0263573 	0.014165 	0.00229835 	9.73185e-25
0.026804 	0.0142903 	0.00210755 	8.85939e-25
0.0272508 	0.0144018 	0.00191696 	7.6223e-25
0.0276975 	0.0145134 	0.00172637 	6.3852e-25
0.0281442 	0.0146101 	0.0015372 	6.61671e-25
0.028591 	0.0147034 	0.00134835 	7.18712e-25
0.0290377 	0.0147911 	0.00116036 	7.01142e-25
0.0294844 	0.0148671 	0.00097415 	5.28608e-25
0.0299312 	0.0149432 	0.00078794 	3.56074e-25
0.0303779 	0.0150054 	0.000604359 	-6.27222e-26
0.0308246 	0.0150649 	0.000421287 	-5.29301e-25
0.0312714 	0.0151189 	0.000239391 	-8.15178e-25
0.0317181 	0.0151624 	5.96778e-05 	-7.65468e-25
0.0321648 	0.0152059 	-0.000120035 	-7.15757e-25
0.0326116 	0.0152358 	-0.00029679 	-2.29274e-25
0.0330583 	0.0152636 	-0.000473072 	3.2684e-25
0.033505 	0.0152854 	-0.000648053 	7.13823e-25
0.0339518 	0.0152973 	-0.000820862 	8.18922e-25
0.0343985 	0.0153092 	-0.000993672 	9.24022e-25
0.0348452 	0.0153069 	-0.00116333 	6.03757e-25
0.035292 	0.0153027 	-0.00133258 	2.29573e-25
0.0357387 	0.015292 	-0.00150035 	2.09246e-26
0.0361854 	0.0152714 	-0.00166587 	6.05799e-26
0.0366322 	0.0152508 	-0.0018314 	1.00235e-25
0.0370789 	0.0152145 	-0.0019932 	4.61654e-25
0.0375256 	0.0151768 	-0.00215465 	8.53927e-25
0.0379724 	0.0151314 	-0.00231411 	9.96121e-25
0.0384191 	0.0150756 	-0.00247087 	7.99974e-25
0.0388658 	0.0150198 	-0.00262763 	6.03827e-25
0.0393126 	0.0149459 	-0.00277907 	7.67341e-27
0.0397593 	0.0148708 	-0.00293015 	-6.15147e-25
0.040206 	0.0147862 	-0.00307798 	-9.96694e-25
0.0406528 	0.0146899 	-0.00322185 	-1.08335e-24
0.0410995 	0.0145937 	-0.00336571 	-1.17001e-24
0.0415462 	0.0144745 	-0.00350041 	-8.93251e-25
0.041993 	0.0143545 	-0.00363475 	-6.02334e-25
0.0424397 	0.0142214 	-0.003763 	-4.03327e-25
0.0428864 	0.014074 	-0.0038845 	-3.05903e-25
0.0433332 	0.0139265 	-0.00400601 	-2.0848e-25
0.0437799 	0.0137471 	-0.00411036 	-1.65102e-25
0.0442266 	0.0135674 	-0.00421449 	-1.22408e-25
0.0446734 	0.0133685 	-0.00430703 	-8.07467e-26
0.0451201 	0.0131505 	-0.00438798 	-4.01194e-26
0.0455668 	0.012932 	-0.00446855 	1.24651e-27
0.0460136 	0.0126697 	-0.00451951 	1.00967e-25
0.0464603 	0.0124073 	-0.00457047 	2.00688e-25
0.046907 	0.0121187 	-0.00460195 	3.70478e-25
0.0473538 	0.0118065 	-0.0046158 	6.03666e-25
0.0478005 	0.0114923 	-0.00462802 	8.26268e-25
0.0482472 	0.0111274 	-0.00459847 	7.77166e-25
0.048694 	0.0107625 	-0.00456892 	7.28065e-25
0.0491407 	0.0103695 	-0.00451332 	5.79102e-25
0.0495874 	0.00995344 	-0.00443639 	3.48435e-25
0.0500342 	0.00953469 	-0.0043565 	1.31905e-25
0.0504809 	0.0090751 	-0.00423204 	1.27453e-25
0.0509276 	0.0086155 	-0.00410758 	1.23001e-25
0.0513744 	0.00813898 	-0.00395847 	1.1966e-25
0.0518211 	0.00764994 	-0.00379115 	1.1714e-25
0.0522678 	0.00716005 	-0.00362092 	1.10801e-25
0.0527146 	0.00666137 	-0.00342033 	6.46339e-26
0.0531613 	0.00616268 	-0.00321975 	1.84668e-26
0.053608 	0.00567199 	-0.00300722 	0
0.0540548 	0.00518663 	-0.00278672 	0
0.0545015 	0.00470527 	-0.00256562 	0
0.0549482 	0.00425558 	-0.00233984 	0
0.055395 	0.00380589 	-0.00211405 	0
0.0558417 	0.00338955 	-0.00189302 	-4.67008e-27
0.0562884 	0.00299323 	-0.00167483 	-1.21422e-26
0.0567352 	0.00260564 	-0.00145889 	-1.97184e-26
0.0571819 	0.00227287 	-0.00125705 	-2.79475e-26
0.0576286 	0.0019401 	-0.0010552 	-3.61766e-26
0.0580754 	0.00165009 	-0.000866967 	-3.74481e-26
0.0585221 	0.0013831 	-0.00068606 	-3.49732e-26
0.0589688 	0.00112625 	-0.000509177 	-3.01348e-26
0.0594156 	0.000921637 	-0.000353028 	-1.31158e-26
0.0598623 	0.000717025 	-0.00019688 	3.90315e-27
0.060309 	0.000550854 	-6.32306e-05 	1.59213e-26
0.0607558 	0.000403192 	5.95852e-05 	2.55317e-26
0.0612025 	0.000265293 	0.000173036 	3.04091e-26
0.0616492 	0.000169701 	0.000245903 	1.47768e-26
0.062096 	7.41088e-05 	0.000318771 	-8.55393e-28
0.0625427 	1.12585e-05 	0.000343182 	-1.18107e-26
0.0629894 	-3.75595e-05 	0.000346827 	-2.07616e-26
0.0634362 	-7.84987e-05 	0.000334446 	-2.67781e-26
0.0638829 	-9.02399e-05 	0.000262674 	-2.19201e-26
0.0643296 	-0.000101981 	0.000190903 	-1.70622e-26
0.0647764 	-9.8178e-05 	8.06069e-05 	-1.14214e-26
0.0652231 	-8.84788e-05 	-4.43017e-05 	-5.48384e-27
0.0656698 	-7.7499e-05 	-0.00016924 	1.37049e-27
0.0661166 	-6.24084e-05 	-0.000294272 	1.1168e-26
0.0665633 	-4.73177e-05 	-0.000419304 	2.09654e-26
0.0670101 	-3.40201e-05 	-0.00048754 	1.47773e-26
0.0674568 	-2.13201e-05 	-0.000536843 	3.26066e-27
0.0679035 	-1.05675e-05 	-0.000542645 	-7.77258e-27
0.0683503 	-5.28577e-06 	-0.00042623 	-1.74476e-26
0.068797 	-4.04463e-09 	-0.000309815 	-2.71227e-26
0.0692437 	9.24915e-07 	-0.000196234 	-2.16554e-26
0.0696905 	5.90168e-07 	-8.34772e-05 	-1.17919e-26
0.0701372 	3.39201e-07 	-2.78332e-06 	-4.26219e-27
0.0705839 	2.95862e-07 	-1.55086e-06 	-2.51603e-27
0.0710307 	2.52524e-07 	-3.18393e-07 	-7.69877e-28
0.0714774 	2.686e-07 	-7.37881e-08 	-3.79659e-28
0.0719241 	2.9953e-07 	-7.61476e-08 	-3.28426e-28
0.0723709 	3.20142e-07 	-7.86388e-08 	-2.25505e-28
0.0728176 	3.18052e-07 	-8.14201e-08 	-8.87289e-30
0.0732643 	3.15963e-07 	-8.42014e-08 	2.07759e-28
0.0737111 	3.12721e-07 	-8.73236e-08 	3.70989e-28
0.0741578 	3.09235e-07 	-9.05182e-08 	5.22892e-28
0.0746045 	3.05353e-07 	-9.38512e-08 	6.70904e-28
0.0750513 	3.00695e-07 	-9.74558e-08 	8.11279e-28
0.075498 	2.96038e-07 	-1.01061e-07 	9.51654e-28
0.0759447 	2.90516e-07 	-1.05001e-07 	9.16723e-28
0.0763915 	2.84842e-07 	-1.09e-07 	8.50855e-28
0.0768382 	2.78838e-07 	-1.13139e-07 	6.66241e-28
0.0772849 	2.72251e-07 	-1.17523e-07 	2.72796e-28
0.0777317 	2.65664e-07 	-1.21908e-07 	-1.20649e-28
0.0781784 	2.58338e-07 	-1.26636e-07 	-4.33471e-28
0.0786251 	2.50905e-07 	-1.31414e-07 	-7.34775e-28
0.0790719 	2.4316e-07 	-1.36353e-07 	-9.52633e-28
0.0795186 	2.34923e-07 	-1.41549e-07 	-1.03859e-27
0.0799653 	2.26685e-07 	-1.46746e-07 	-1.12455e-27
0.0804121 	2.17746e-07 	-1.52362e-07 	-1.06341e-27
0.0808588 	2.08729e-07 	-1.58025e-07 	-9.85915e-28
0.0813055 	1.99398e-07 	-1.6391e-07 	-7.83174e-28
0.0817523 	1.8962e-07 	-1.70109e-07 	-4.02045e-28
0.082199 	1.79843e-07 	-1.76309e-07 	-2.0916e-29
0.0826457 	1.6938e-07 	-1.8309e-07 	3.49516e-28
0.0830925 	1.58861e-07 	-1.89919e-07 	7.19081e-28
0.0835392 	1.48033e-07 	-1.97073e-07 	9.24699e-28
0.0839859 	1.36806e-07 	-2.04645e-07 	9.19527e-28
0.0844327 	1.25579e-07 	-2.12218e-07 	9.14356e-28
0.0848794 	1.13733e-07 	-2.20624e-07 	5.04711e-28
0.0853261 	1.01853e-07 	-2.29074e-07 	7.37789e-29
0.0857729 	8.97147e-08 	-2.37997e-07 	-1.1939e-28
0.0862196 	7.72757e-08 	-2.47471e-07 	-3.62388e-29
0.0866663 	6.48366e-08 	-2.56944e-07 	4.69124e-29
0.0871131 	5.19897e-08 	-2.67547e-07 	6.94001e-28
0.0875598 	3.91324e-08 	-2.78178e-07 	1.35555e-27
0.0880065 	2.61653e-08 	-2.28042e-07 	1.36249e-27
0.0884533 	1.30826e-08 	-1.14021e-07 	6.81243e-28
0.0889 	3.88149e-22 	-7.84108e-21 	6.03372e-41
