0 	0 	0 	0
0.000446734 	-1.52992e-05 	-0.000107088 	7.36431e-26
0.000893467 	-3.05983e-05 	-0.000214176 	1.47286e-25
0.0013402 	-4.77351e-05 	-0.000296712 	2.58372e-25
0.00178693 	-6.66198e-05 	-0.000355893 	4.05074e-25
0.00223367 	-8.50798e-05 	-0.000413624 	5.46279e-25
0.0026804 	-8.69785e-05 	-0.000414808 	4.73126e-25
0.00312714 	-8.88773e-05 	-0.000415992 	3.99972e-25
0.00357387 	-6.95685e-05 	-0.000380595 	2.48494e-25
0.0040206 	-3.20113e-05 	-0.000313721 	2.96206e-26
0.00446734 	8.73755e-06 	-0.000242991 	-1.80075e-25
0.00491407 	0.000110127 	-9.90164e-05 	-2.15384e-25
0.0053608 	0.000211516 	4.49585e-05 	-2.50694e-25
0.00580754 	0.000362038 	0.000234448 	-1.68249e-25
0.00625427 	0.000550775 	0.000459338 	5.78155e-27
0.00670101 	0.000747233 	0.000689646 	1.79673e-25
0.00714774 	0.00103892 	0.000986775 	3.5185e-25
0.00759447 	0.0013306 	0.0012839 	5.24027e-25
0.00804121 	0.00168185 	0.00160804 	5.35208e-25
0.00848794 	0.00207493 	0.00195113 	4.33349e-25
0.00893467 	0.00247604 	0.00229485 	3.39119e-25
0.00938141 	0.00294952 	0.00264419 	3.13544e-25
0.00982814 	0.003423 	0.00299353 	2.87969e-25
0.0102749 	0.00392503 	0.00332099 	4.44172e-25
0.0107216 	0.00444513 	0.00363461 	7.15376e-25
0.0111683 	0.00496651 	0.00393959 	9.3388e-25
0.0116151 	0.00549684 	0.00418414 	7.83474e-25
0.0120618 	0.00602716 	0.0044287 	6.33068e-25
0.0125085 	0.00654437 	0.00461701 	2.52536e-25
0.0129553 	0.00705411 	0.00477334 	-2.58851e-25
0.013402 	0.00755756 	0.00491569 	-7.28467e-25
0.0138487 	0.00802542 	0.00497876 	-9.61383e-25
0.0142955 	0.00849328 	0.00504184 	-1.1943e-24
0.0147422 	0.0089257 	0.00504688 	-1.10599e-24
0.0151889 	0.00934007 	0.00502235 	-8.54038e-25
0.0156357 	0.0097444 	0.00498459 	-5.39412e-25
0.0160824 	0.0101014 	0.00488442 	7.06755e-26
0.0165291 	0.0104583 	0.00478424 	6.80763e-25
0.0169759 	0.0107766 	0.00464198 	8.63323e-25
0.0174226 	0.0110772 	0.00448058 	8.51553e-25
0.0178693 	0.0113673 	0.00430981 	7.74427e-25
0.0183161 	0.0116152 	0.00410153 	4.3588e-25
0.0187628 	0.0118632 	0.00389324 	9.73324e-26
0.0192095 	0.0120768 	0.00366067 	0
0.0196563 	0.0122765 	0.00341831 	0
0.020103 	0.0124663 	0.0031707 	-8.72532e-26
0.0205497 	0.0126221 	0.00290503 	-4.75045e-25
0.0209965 	0.0127779 	0.00263936 	-8.62837e-25
0.0214432 	0.0129039 	0.00236297 	-1.3918e-24
0.0218899 	0.0130192 	0.00208277 	-1.97102e-24
0.0223367 	0.0131251 	0.00180071 	-2.3756e-24
0.0227834 	0.0132027 	0.00151306 	-2.25629e-24
0.0232302 	0.0132802 	0.00122541 	-2.13697e-24
0.0236769 	0.0133301 	0.0009365 	-1.41643e-24
0.0241236 	0.0133715 	0.000647202 	-5.08625e-25
0.0245704 	0.013403 	0.000358811 	3.3273e-25
0.0250171 	0.0134089 	7.28102e-05 	9.98895e-25
0.0254638 	0.0134148 	-0.00021319 	1.66506e-24
0.0259106 	0.0133925 	-0.000493011 	1.70314e-24
0.0263573 	0.0133627 	-0.000771164 	1.57174e-24
0.026804 	0.013322 	-0.00104561 	1.41712e-24
0.0272508 	0.0132559 	-0.0013114 	1.20833e-24
0.0276975 	0.0131898 	-0.00157719 	9.99541e-25
0.0281442 	0.0130933 	-0.00182916 	1.01939e-24
0.028591 	0.0129898 	-0.00207793 	1.09199e-24
0.0290377 	0.0128737 	-0.00231956 	1.0593e-24
0.0294844 	0.0127316 	-0.00254635 	8.07906e-25
0.0299312 	0.0125894 	-0.00277315 	5.56511e-25
0.0303779 	0.0124139 	-0.00297708 	-2.49515e-26
0.0308246 	0.012232 	-0.00317656 	-6.70456e-25
0.0312714 	0.0120357 	-0.00336447 	-1.06816e-24
0.0317181 	0.0118129 	-0.00353086 	-1.00566e-24
0.0321648 	0.0115901 	-0.00369725 	-9.43167e-25
0.0326116 	0.0113316 	-0.0038297 	-3.39196e-25
0.0330583 	0.0110673 	-0.00395674 	3.51097e-25
0.033505 	0.0107873 	-0.00406654 	8.23813e-25
0.0339518 	0.0104811 	-0.00414758 	9.33898e-25
0.0343985 	0.010175 	-0.00422862 	1.04398e-24
0.0348452 	0.00983209 	-0.00426297 	6.92254e-25
0.035292 	0.00948452 	-0.00429141 	2.81984e-25
0.0357387 	0.00912126 	-0.00429661 	3.4925e-26
0.0361854 	0.00873446 	-0.00426696 	3.26835e-26
0.0366322 	0.00834766 	-0.00423732 	3.0442e-26
0.0370789 	0.00793016 	-0.00415237 	2.84265e-25
0.0375256 	0.00750972 	-0.00406212 	5.62642e-25
0.0379724 	0.00707951 	-0.00394722 	6.64304e-25
0.0384191 	0.00663607 	-0.00379897 	5.26881e-25
0.0388658 	0.00619263 	-0.00365072 	3.89457e-25
0.0393126 	0.00574292 	-0.00345683 	7.97986e-26
0.0397593 	0.0052928 	-0.0032599 	-2.41342e-25
0.040206 	0.00484894 	-0.00304823 	-4.24346e-25
0.0406528 	0.00441272 	-0.00281855 	-4.38517e-25
0.0410995 	0.0039765 	-0.00258886 	-4.52688e-25
0.0415462 	0.00357418 	-0.00234753 	-3.29933e-25
0.041993 	0.00317318 	-0.00210574 	-2.01842e-25
0.0424397 	0.00279736 	-0.0018691 	-1.17762e-25
0.0428864 	0.00244938 	-0.00163816 	-8.23233e-26
0.0433332 	0.00210139 	-0.00140721 	-4.68847e-26
0.0437799 	0.00181703 	-0.00121113 	-3.62129e-26
0.0442266 	0.00153347 	-0.0010155 	-2.58546e-26
0.0446734 	0.00128431 	-0.000850304 	-1.65196e-26
0.0451201 	0.00106955 	-0.000715558 	-8.20784e-27
0.0455668 	0.000855604 	-0.000581804 	2.12815e-28
0.0460136 	0.000706571 	-0.000526395 	1.7238e-26
0.0464603 	0.000557537 	-0.000470986 	3.42632e-26
0.046907 	0.000436491 	-0.000450811 	6.54334e-26
0.0473538 	0.000340768 	-0.000462515 	1.09401e-25
0.0478005 	0.000246304 	-0.00047424 	1.51493e-25
0.0482472 	0.000184148 	-0.000486544 	1.45418e-25
0.048694 	0.000121992 	-0.000498848 	1.39342e-25
0.0491407 	7.66012e-05 	-0.000449115 	1.12109e-25
0.0495874 	4.49283e-05 	-0.000348624 	6.75655e-26
0.0500342 	1.48504e-05 	-0.000248262 	2.51227e-26
0.0504809 	8.69815e-06 	-0.000149832 	1.4195e-26
0.0509276 	2.54592e-06 	-5.1403e-05 	3.26719e-27
0.0513744 	2.63821e-08 	-7.37008e-06 	-1.04605e-27
0.0518211 	1.91875e-07 	-3.54339e-06 	-4.70289e-28
0.0522678 	3.46729e-07 	-5.17109e-08 	5.31567e-29
0.0527146 	3.90627e-07 	-5.38245e-08 	3.10081e-29
0.0531613 	4.34524e-07 	-5.59382e-08 	8.85945e-30
0.053608 	4.50284e-07 	-5.78282e-08 	0
0.0540548 	4.47285e-07 	-5.95693e-08 	0
0.0545015 	4.44203e-07 	-6.12626e-08 	0
0.0549482 	4.40471e-07 	-6.25796e-08 	0
0.055395 	4.36739e-07 	-6.38966e-08 	0
0.0558417 	4.32712e-07 	-6.50103e-08 	-2.21261e-29
0.0562884 	4.28507e-07 	-6.6002e-08 	-5.75278e-29
0.0567352 	4.24263e-07 	-6.69595e-08 	-9.46333e-29
0.0571819 	4.19766e-07 	-6.77027e-08 	-1.42426e-28
0.0576286 	4.1527e-07 	-6.8446e-08 	-1.90219e-28
0.0580754 	4.10662e-07 	-6.90684e-08 	-2.00646e-28
0.0585221 	4.05994e-07 	-6.96258e-08 	-1.90952e-28
0.0589688 	4.0131e-07 	-7.01615e-08 	-1.63925e-28
0.0594156 	3.96549e-07 	-7.05851e-08 	-4.75627e-29
0.0598623 	3.91787e-07 	-7.10087e-08 	6.87997e-29
0.060309 	3.86994e-07 	-7.13718e-08 	1.49892e-28
0.0607558 	3.82187e-07 	-7.17057e-08 	2.14003e-28
0.0612025 	3.77375e-07 	-7.20298e-08 	2.3559e-28
0.0616492 	3.72548e-07 	-7.23114e-08 	7.2905e-29
0.062096 	3.6772e-07 	-7.2593e-08 	-8.97801e-29
0.0625427 	3.62887e-07 	-7.28603e-08 	-2.43448e-28
0.0629894 	3.58051e-07 	-7.31215e-08 	-3.93251e-28
0.0634362 	3.53213e-07 	-7.33841e-08 	-5.17589e-28
0.0638829 	3.48371e-07 	-7.36518e-08 	-5.47554e-28
0.0643296 	3.43529e-07 	-7.39196e-08 	-5.77519e-28
0.0647764 	3.38679e-07 	-7.42089e-08 	-6.9652e-28
0.0652231 	3.33826e-07 	-7.45063e-08 	-8.49293e-28
0.0656698 	3.28968e-07 	-7.48156e-08 	-9.88331e-28
0.0661166 	3.24095e-07 	-7.51625e-08 	-1.08327e-27
0.0665633 	3.19221e-07 	-7.55095e-08 	-1.17822e-27
0.0670101 	3.14323e-07 	-7.59065e-08 	-8.82814e-28
0.0674568 	3.09417e-07 	-7.63202e-08 	-4.57298e-28
0.0679035 	3.04499e-07 	-7.67554e-08 	-3.92285e-29
0.0683503 	2.99545e-07 	-7.72511e-08 	3.57919e-28
0.068797 	2.94592e-07 	-7.77468e-08 	7.55067e-28
0.0692437 	2.89589e-07 	-7.83168e-08 	8.59247e-28
0.0696905 	2.84572e-07 	-7.89085e-08 	8.78372e-28
0.0701372 	2.79531e-07 	-7.95316e-08 	9.49768e-28
0.0705839 	2.74432e-07 	-8.02324e-08 	1.15071e-27
0.0710307 	2.69333e-07 	-8.09333e-08 	1.35165e-27
0.0714774 	2.64155e-07 	-8.17319e-08 	1.24345e-27
0.0719241 	2.58956e-07 	-8.2555e-08 	1.05797e-27
0.0723709 	2.5372e-07 	-8.34205e-08 	7.10801e-28
0.0728176 	2.48401e-07 	-8.43792e-08 	7.94077e-30
0.0732643 	2.43083e-07 	-8.5338e-08 	-6.94919e-28
0.0737111 	2.37648e-07 	-8.64204e-08 	-1.18461e-27
0.0741578 	2.3219e-07 	-8.75292e-08 	-1.62908e-27
0.0746045 	2.26677e-07 	-8.86939e-08 	-2.05403e-27
0.0750513 	2.21056e-07 	-8.99686e-08 	-2.44068e-27
0.075498 	2.15436e-07 	-9.12433e-08 	-2.82733e-27
0.0759447 	2.09661e-07 	-9.26745e-08 	-2.71621e-27
0.0763915 	2.03857e-07 	-9.41334e-08 	-2.51724e-27
0.0768382 	1.9798e-07 	-9.56667e-08 	-1.99571e-27
0.0772849 	1.91971e-07 	-9.7331e-08 	-9.06895e-28
0.0777317 	1.85962e-07 	-9.89953e-08 	1.81921e-28
0.0781784 	1.79754e-07 	-1.00862e-07 	9.97722e-28
0.0786251 	1.73517e-07 	-1.02757e-07 	1.77452e-27
0.0790719 	1.67184e-07 	-1.04753e-07 	2.3141e-27
0.0795186 	1.60698e-07 	-1.06909e-07 	2.47873e-27
0.0799653 	1.54212e-07 	-1.09065e-07 	2.64335e-27
0.0804121 	1.47482e-07 	-1.1149e-07 	2.43142e-27
0.0808588 	1.40726e-07 	-1.13944e-07 	2.17766e-27
0.0813055 	1.33851e-07 	-1.16539e-07 	1.68651e-27
0.0817523 	1.26808e-07 	-1.19336e-07 	8.57263e-28
0.082199 	1.19764e-07 	-1.22133e-07 	2.80192e-29
0.0826457 	1.12445e-07 	-1.25296e-07 	-6.9538e-28
0.0830925 	1.05103e-07 	-1.28488e-07 	-1.4102e-27
0.0835392 	9.763e-08 	-1.31882e-07 	-1.82725e-27
0.0839859 	8.99882e-08 	-1.35535e-07 	-1.86147e-27
0.0844327 	8.23463e-08 	-1.39187e-07 	-1.89569e-27
0.0848794 	7.44322e-08 	-1.43345e-07 	-1.19798e-27
0.0853261 	6.65038e-08 	-1.4753e-07 	-4.61752e-28
0.0857729 	5.8459e-08 	-1.51997e-07 	-5.49856e-29
0.0862196 	5.0279e-08 	-1.56792e-07 	-3.1112e-29
0.0866663 	4.20991e-08 	-1.61588e-07 	-7.23843e-30
0.0871131 	3.37338e-08 	-1.67048e-07 	-8.90128e-28
0.0875598 	2.53638e-08 	-1.72526e-07 	-1.79627e-27
0.0880065 	1.6944e-08 	-1.40971e-07 	-1.81762e-27
0.0884533 	8.47201e-09 	-7.04856e-08 	-9.0881e-28
0.0889 	2.52243e-22 	-4.82423e-21 	-7.40457e-41
