# f_l  POINT_DATA 1632
#  x  y  z  f_l
0.0365931 0.000555 1.34776e-19 0.5
0.0365749 0.001665 1.24189e-19 0.5
0.0365206 0.00111 0.0025 0.5
0.0365206 0.00111 -0.0025 0.5
0.0365816 0.00119959 0.00209646 0.5
0.0365816 0.00119959 -0.00209646 0.5
0.0365865 0.00102535 -0.00211869 0.5
0.0365865 0.00102535 0.00211869 0.5
0.0365154 0.00222 0.0025 0.5
0.0365154 0.00222 -0.0025 0.5
0.0365865 0.00102535 0.0025 0.5
0.0365865 0.00102535 -0.0025 0.5
0.0365816 0.00119959 0.0025 0.5
0.0365816 0.00119959 -0.0025 0.5
0.0365863 0.002775 5.8315e-21 0.5
0.036579 0.00212784 -0.00208488 0.5
0.036579 0.00212784 0.00208488 0.5
0.0365822 0.00230896 0.00209927 0.5
0.0365822 0.00230896 -0.00209927 0.5
0.036579 0.00212784 0.0025 0.5
0.036579 0.00212784 -0.0025 0.5
0.0365822 0.00230896 0.0025 0.5
0.0365822 0.00230896 -0.0025 0.5
0.0366712 0.000977474 0.0025 0.5
0.0366713 0.000977474 -0.0025 0.5
0.036538 0.00333 0.0025 0.5
0.036538 0.00333 -0.0025 0.5
0.0365933 0.00325211 -0.00214914 0.5
0.0365933 0.00325211 0.00214914 0.5
0.0366045 0.003885 2.18581e-20 0.5
0.0365977 0.00340351 0.00216887 0.5
0.0365977 0.00340351 -0.00216887 0.5
0.0365933 0.00325211 0.0025 0.5
0.0365933 0.00325211 -0.0025 0.5
0.0365977 0.00340351 0.0025 0.5
0.0365977 0.00340351 -0.0025 0.5
0.0365704 0.00444 0.0025 0.5
0.0365704 0.00444 -0.0025 0.5
0.0366137 0.00438251 -0.00224102 0.5
0.0366137 0.00438251 0.00224102 0.5
0.0366137 0.00438251 0.0025 0.5
0.0366137 0.00438251 -0.0025 0.5
0.0366177 0.00449348 0.00225909 0.5
0.0366177 0.00449348 -0.00225909 0.5
0.0366266 0.004995 6.05961e-20 0.5
0.0366177 0.00449348 0.0025 0.5
0.0366177 0.00449348 -0.0025 0.5
0.0369491 0.0002775 0.0025 0.5
0.0369491 0.0002775 -0.0025 0.5
0.0366079 0.00555 0.0025 0.5
0.0366079 0.00555 -0.0025 0.5
0.0366364 0.00551517 -0.00234309 0.5
0.0366364 0.00551517 0.00234309 0.5
0.0366364 0.00551517 0.0025 0.5
0.0366364 0.00551517 -0.0025 0.5
0.0366389 0.00558236 -0.00235423 0.5
0.0366389 0.00558236 0.00235423 0.5
0.0366389 0.00558236 -0.0025 0.5
0.0366389 0.00558236 0.0025 0.5
0.0366483 0.006105 2.28882e-19 0.5
0.0372269 0.0002775 1.82154e-19 0.5
0.0366473 0.00666 -0.0025 0.5
0.0366473 0.00666 0.0025 0.5
0.0366586 0.00664734 -0.00244295 0.5
0.0366586 0.00664734 0.00244295 0.5
0.0366586 0.00664734 -0.0025 0.5
0.0366586 0.00664734 0.0025 0.5
0.0366593 0.00667194 -0.0024462 0.5
0.0366593 0.00667194 0.0024462 0.5
0.0366593 0.00667194 -0.0025 0.5
0.0366593 0.00667194 0.0025 0.5
0.0366694 0.007215 1.70994e-19 0.5
0.0366712 0.0069168 0.0025 0.5
0.0366712 0.0069168 -0.0025 0.5
0.0367088 0.00773245 -0.00233085 0.5
0.0367088 0.00773245 0.00233085 0.5
0.0375047 0.0002775 0.0025 0.5
0.0375047 0.0002775 -0.0025 0.5
0.0367088 0.00773245 0.0025 0.5
0.0367088 0.00773245 -0.0025 0.5
0.0367222 0.00782093 -0.00227056 0.5
0.0367222 0.00782093 0.00227056 0.5
0.0367222 0.00782093 0.0025 0.5
0.0367222 0.00782093 -0.0025 0.5
0.0367511 0.00777 0.0025 0.5
0.0367511 0.00777 -0.0025 0.5
0.0367665 0.008325 5.84999e-20 0.5
0.0377825 0.000555 -0.0025 0.5
0.0377825 0.000555 0.0025 0.5
0.0367999 0.00875148 -0.00192109 0.5
0.0367999 0.00875148 0.00192109 0.5
0.0367999 0.00875148 0.0025 0.5
0.0367999 0.00875148 -0.0025 0.5
0.0368524 0.00906094 -0.00168494 0.5
0.0368524 0.00906094 0.00168494 0.5
0.0368524 0.00906094 0.0025 0.5
0.0368524 0.00906094 -0.0025 0.5
0.036908 0.00888 0.0025 0.5
0.036908 0.00888 -0.0025 0.5
0.0368871 0.009435 1.94305e-20 0.5
0.0380603 0.0002775 0.0025 0.5
0.0380603 0.0002775 -0.0025 0.5
0.0369169 0.00974463 -0.00139475 0.5
0.0369169 0.00974463 0.00139475 0.5
0.0369169 0.00974463 0.0025 0.5
0.0369169 0.00974463 -0.0025 0.5
0.0383381 0.0002775 0 0.5
0.037059 0.00999 0.0025 0.5
0.037059 0.00999 -0.0025 0.5
0.0370691 0.0105323 -5.82911e-22 0.5
0.0370493 0.0103677 0.0025 0.5
0.0370493 0.0103677 -0.0025 0.5
0.0370875 0.0106843 0.0025 0.5
0.0370875 0.0106843 -0.0025 0.5
0.0386159 0.0002775 0.0025 0.5
0.0386159 0.0002775 -0.0025 0.5
0.0372148 0.0111 0.0025 0.5
0.0372148 0.0111 -0.0025 0.5
0.0388938 0.000555 -0.0025 0.5
0.0388938 0.000555 0.0025 0.5
0.0373378 0.0116178 1.03505e-20 0.5
0.0373329 0.011549 0.0025 0.5
0.0373329 0.011549 -0.0025 0.5
0.0391716 0.0002775 0.0025 0.5
0.0391716 0.0002775 -0.0025 0.5
0.0373641 0.0117921 0.0025 0.5
0.0373641 0.0117921 -0.0025 0.5
0.0373741 0.01221 -0.0025 0.5
0.0373741 0.01221 0.0025 0.5
0.0394494 0.0002775 3.228e-22 0.5
0.0375196 0.0124726 0.00131721 0.5
0.0375196 0.0124726 -0.00131721 0.5
0.0375196 0.0124726 0.0025 0.5
0.0375196 0.0124726 -0.0025 0.5
0.0375496 0.012765 -2.02151e-19 0.5
0.0397272 0.0002775 0.0025 0.5
0.0397272 0.0002775 -0.0025 0.5
0.0375836 0.0131213 -0.00160484 0.5
0.0375836 0.0131213 0.00160484 0.5
0.0375836 0.0131213 -0.0025 0.5
0.0375836 0.0131213 0.0025 0.5
0.0375288 0.01332 -0.0025 0.5
0.0375288 0.01332 0.0025 0.5
0.0376424 0.0134599 -0.00186985 0.5
0.0376424 0.0134599 0.00186985 0.5
0.0376424 0.0134599 -0.0025 0.5
0.0376424 0.0134599 0.0025 0.5
0.040005 0.000555 -0.0025 0.5
0.040005 0.000555 0.0025 0.5
0.0376757 0.013875 6.98756e-19 0.5
0.0402828 0.0002775 0.0025 0.5
0.0402828 0.0002775 -0.0025 0.5
0.0377054 0.014353 -0.00215312 0.5
0.0377054 0.014353 0.00215312 0.5
0.0376612 0.01443 0.0025 0.5
0.0376612 0.01443 -0.0025 0.5
0.0377054 0.014353 0.0025 0.5
0.0377054 0.014353 -0.0025 0.5
0.0377216 0.0144909 0.00222581 0.5
0.0377216 0.0144909 -0.00222581 0.5
0.0377216 0.0144909 0.0025 0.5
0.0377216 0.0144909 -0.0025 0.5
0.0405606 0.0002775 0 0.5
0.0377489 0.014985 -3.50421e-19 0.5
0.0377825 0.0150216 -0.0025 0.5
0.0377825 0.0150216 0.0025 0.5
0.0408384 0.0002775 0.0025 0.5
0.0408384 0.0002775 -0.0025 0.5
0.037831 0.0154916 -0.00228177 0.5
0.037831 0.0154916 0.00228177 0.5
0.037831 0.0154916 0.0025 0.5
0.037831 0.0154916 -0.0025 0.5
0.037873 0.0156304 -0.00209296 0.5
0.037873 0.0156304 0.00209296 0.5
0.0378922 0.01554 0.0025 0.5
0.0378922 0.01554 -0.0025 0.5
0.037873 0.0156304 0.0025 0.5
0.037873 0.0156304 -0.0025 0.5
0.0411163 0.000555 -0.0025 0.5
0.0411163 0.000555 0.0025 0.5
0.0379689 0.016095 0 0.5
0.0380333 0.0163995 -0.00137146 0.5
0.0380333 0.0163995 0.00137146 0.5
0.0413941 0.0002775 0.0025 0.5
0.0413941 0.0002775 -0.0025 0.5
0.0380333 0.0163995 0.0025 0.5
0.0380333 0.0163995 -0.0025 0.5
0.0416719 0.0002775 0 0.5
0.0382335 0.01665 0.0025 0.5
0.0382335 0.01665 -0.0025 0.5
0.0419497 0.0002775 0.0025 0.5
0.0419497 0.0002775 -0.0025 0.5
0.0384498 0.0171937 -1.97005e-20 0.5
0.0384331 0.0171101 0.0025 0.5
0.0384331 0.0171101 -0.0025 0.5
0.0384934 0.0173601 0.0025 0.5
0.0384934 0.0173601 -0.0025 0.5
0.0422275 0.000555 -0.0025 0.5
0.0422275 0.000555 0.0025 0.5
0.0385438 0.01776 0.0025 0.5
0.0385438 0.01776 -0.0025 0.5
0.0425053 0.0002775 0.0025 0.5
0.0425053 0.0002775 -0.0025 0.5
0.0387062 0.0179473 0.00165619 0.5
0.0387062 0.0179473 -0.00165619 0.5
0.0387062 0.0179473 0.0025 0.5
0.0387062 0.0179473 -0.0025 0.5
0.0427831 0.0002775 -6.27343e-20 0.5
0.0387626 0.018315 -1.17245e-20 0.5
0.0430609 0.0002775 0.0025 0.5
0.0430609 0.0002775 -0.0025 0.5
0.038818 0.0187943 -0.00215895 0.5
0.038818 0.0187943 0.00215895 0.5
0.038818 0.0187943 0.0025 0.5
0.038818 0.0187943 -0.0025 0.5
0.0387839 0.01887 0.0025 0.5
0.0387839 0.01887 -0.0025 0.5
0.0388416 0.018922 0.00226558 0.5
0.0388416 0.018922 -0.00226558 0.5
0.0388416 0.018922 0.0025 0.5
0.0388416 0.018922 -0.0025 0.5
0.0433388 0.000555 -0.0025 0.5
0.0433388 0.000555 0.0025 0.5
0.0388938 0.0191747 -0.0025 0.5
0.0388938 0.0191747 0.0025 0.5
0.0388912 0.019425 -5.16476e-20 0.5
0.0436166 0.0002775 0.0025 0.5
0.0436166 0.0002775 -0.0025 0.5
0.0390122 0.0198617 -0.00196704 0.5
0.0390122 0.0198617 0.00196704 0.5
0.0390122 0.0198617 0.0025 0.5
0.0390122 0.0198617 -0.0025 0.5
0.0438944 0.0002775 -5.5916e-20 0.5
0.0391846 0.01998 0.0025 0.5
0.0391846 0.01998 -0.0025 0.5
0.0441722 0.0002775 0.0025 0.5
0.0441722 0.0002775 -0.0025 0.5
0.03949 0.0205372 5.33224e-20 0.5
0.04445 0.000555 0.0025 0.5
0.04445 0.000555 -0.0025 0.5
0.039479 0.0205054 -0.0025 0.5
0.039479 0.0205054 0.0025 0.5
0.0395135 0.0205991 -0.0025 0.5
0.0395135 0.0205991 0.0025 0.5
0.0447278 0.0002775 0.0025 0.5
0.0447278 0.0002775 -0.0025 0.5
0.0396564 0.02109 0.0025 0.5
0.0396564 0.02109 -0.0025 0.5
0.0450056 0.0002775 0 0.5
0.0398337 0.0212611 0.00172946 0.5
0.0398337 0.0212611 -0.00172946 0.5
0.0398337 0.0212611 0.0025 0.5
0.0398337 0.0212611 -0.0025 0.5
0.0452834 0.0002775 0.0025 0.5
0.0452834 0.0002775 -0.0025 0.5
0.0399085 0.021645 3.86673e-20 0.5
0.0455612 0.000555 -0.0025 0.5
0.0455612 0.000555 0.0025 0.5
0.040005 0.0221116 -0.0025 0.5
0.040005 0.0221116 0.0025 0.5
0.0400197 0.0221853 -0.00243397 0.5
0.0400197 0.0221853 0.00243397 0.5
0.0400197 0.0221853 0.0025 0.5
0.0400197 0.0221853 -0.0025 0.5
0.0400293 0.0222243 -0.00239062 0.5
0.0400293 0.0222243 0.00239062 0.5
0.0400376 0.0222 0.0025 0.5
0.0400376 0.0222 -0.0025 0.5
0.0400293 0.0222243 0.0025 0.5
0.0400293 0.0222243 -0.0025 0.5
0.0458391 0.0002775 0.0025 0.5
0.0458391 0.0002775 -0.0025 0.5
0.0461169 0.0002775 0 0.5
0.0401463 0.022755 -5.21635e-20 0.5
0.0402492 0.0230661 -0.0014013 0.5
0.0402492 0.0230661 0.0014013 0.5
0.0402492 0.0230661 0.0025 0.5
0.0402492 0.0230661 -0.0025 0.5
0.0463947 0.0002775 0.0025 0.5
0.0463947 0.0002775 -0.0025 0.5
0.0466725 0.000555 -0.0025 0.5
0.0466725 0.000555 0.0025 0.5
0.040522 0.02331 0.0025 0.5
0.040522 0.02331 -0.0025 0.5
0.0469503 0.0002775 0.0025 0.5
0.0469503 0.0002775 -0.0025 0.5
0.040789 0.0236145 -2.63246e-19 0.5
0.0408162 0.0236097 0.0025 0.5
0.0408162 0.0236097 -0.0025 0.5
0.0472281 0.0002775 -1.94461e-21 0.5
0.0475059 0.0002775 0.0025 0.5
0.0475059 0.0002775 -0.0025 0.5
0.0409829 0.0242868 0.00189979 0.5
0.0409829 0.0242868 -0.00189979 0.5
0.0409829 0.0242868 0.0025 0.5
0.0409829 0.0242868 -0.0025 0.5
0.0409564 0.02442 0.0025 0.5
0.0409564 0.02442 -0.0025 0.5
0.0410445 0.0244917 0.00217702 0.5
0.0410445 0.0244917 -0.00217702 0.5
0.0477837 0.000555 -0.0025 0.5
0.0477837 0.000555 0.0025 0.5
0.0410445 0.0244917 0.0025 0.5
0.0410445 0.0244917 -0.0025 0.5
0.0411163 0.0247861 -0.0025 0.5
0.0411163 0.0247861 0.0025 0.5
0.0411076 0.024975 6.43023e-19 0.5
0.0480616 0.0002775 0.0025 0.5
0.0480616 0.0002775 -0.0025 0.5
0.0483394 0.0002775 0 0.5
0.0412419 0.0254045 0.0019346 0.5
0.0412419 0.0254045 -0.0019346 0.5
0.0412419 0.0254045 0.0025 0.5
0.0412419 0.0254045 -0.0025 0.5
0.0486172 0.0002775 0.0025 0.5
0.0486172 0.0002775 -0.0025 0.5
0.0414435 0.02553 0.0025 0.5
0.0414435 0.02553 -0.0025 0.5
0.048895 0.000555 -0.0025 0.5
0.048895 0.000555 0.0025 0.5
0.0491728 0.0002775 0.0025 0.5
0.0491728 0.0002775 -0.0025 0.5
0.0417951 0.0259619 -0.0025 0.5
0.0417951 0.0259619 0.0025 0.5
0.0418396 0.0260924 8.81177e-20 0.5
0.0494506 0.0002775 0 0.5
0.0419309 0.0263438 -0.0025 0.5
0.0419309 0.0263438 0.0025 0.5
0.0419736 0.02664 0.0025 0.5
0.0419736 0.02664 -0.0025 0.5
0.0497284 0.0002775 0.0025 0.5
0.0497284 0.0002775 -0.0025 0.5
0.0421136 0.0267537 0.00198773 0.5
0.0421136 0.0267537 -0.00198773 0.5
0.0421136 0.0267537 0.0025 0.5
0.0421136 0.0267537 -0.0025 0.5
0.0500063 0.000555 -0.0025 0.5
0.0500063 0.000555 0.0025 0.5
0.0421941 0.027195 2.09358e-20 0.5
0.0422275 0.0272447 -0.0025 0.5
0.0422275 0.0272447 0.0025 0.5
0.0502841 0.0002775 0.0025 0.5
0.0502841 0.0002775 -0.0025 0.5
0.0505619 0.0002775 1.91847e-21 0.5
0.0423166 0.027661 -0.00209918 0.5
0.0423166 0.027661 0.00209918 0.5
0.0423166 0.027661 0.0025 0.5
0.0423166 0.027661 -0.0025 0.5
0.0424459 0.02775 0.0025 0.5
0.0424459 0.02775 -0.0025 0.5
0.0508397 0.0002775 0.0025 0.5
0.0508397 0.0002775 -0.0025 0.5
0.0425657 0.0280878 0.0025 0.5
0.0425657 0.0280878 -0.0025 0.5
0.0511175 0.000555 -0.0025 0.5
0.0511175 0.000555 0.0025 0.5
0.0426582 0.0282915 -1.06015e-18 0.5
0.0426969 0.0283912 0.0025 0.5
0.0426969 0.0283912 -0.0025 0.5
0.0513953 0.0002775 0.0025 0.5
0.0513953 0.0002775 -0.0025 0.5
0.0516731 0.0002775 0 0.5
0.0429698 0.02886 -0.0025 0.5
0.0429698 0.02886 0.0025 0.5
0.0519509 0.0002775 0.0025 0.5
0.0519509 0.0002775 -0.0025 0.5
0.043175 0.0290235 0.00176329 0.5
0.043175 0.0290235 -0.00176329 0.5
0.043175 0.0290235 0.0025 0.5
0.043175 0.0290235 -0.0025 0.5
0.0522288 0.000555 -0.0025 0.5
0.0522288 0.000555 0.0025 0.5
0.0432752 0.029415 1.33562e-18 0.5
0.0525066 0.0002775 0.0025 0.5
0.0525066 0.0002775 -0.0025 0.5
0.0433388 0.0297293 -0.0025 0.5
0.0433388 0.0297293 0.0025 0.5
0.0433855 0.0299233 -0.00228953 0.5
0.0433855 0.0299233 0.00228953 0.5
0.0433855 0.0299233 -0.0025 0.5
0.0433855 0.0299233 0.0025 0.5
0.0527844 0.0002775 0 0.5
0.0434464 0.02997 0.0025 0.5
0.0434464 0.02997 -0.0025 0.5
0.0434372 0.0300683 -0.00205712 0.5
0.0434372 0.0300683 0.00205712 0.5
0.0434372 0.0300683 0.0025 0.5
0.0434372 0.0300683 -0.0025 0.5
0.0530622 0.0002775 0.0025 0.5
0.0530622 0.0002775 -0.0025 0.5
0.05334 0.000555 -0.0025 0.5
0.05334 0.000555 0.0025 0.5
0.0436767 0.0307628 -1.02373e-18 0.5
0.0436509 0.0307682 0.0025 0.5
0.0436509 0.0307682 -0.0025 0.5
0.0536178 0.0002775 -0.0025 0.5
0.0536178 0.0002775 0.0025 0.5
0.0439472 0.03108 0.0025 0.5
0.0439472 0.03108 -0.0025 0.5
0.0538956 0.0002775 0 0.5
0.044215 0.0313148 -0.00144248 0.5
0.044215 0.0313148 0.00144248 0.5
0.0541734 0.0002775 0.0025 0.5
0.0541734 0.0002775 -0.0025 0.5
0.044215 0.0313148 0.0025 0.5
0.044215 0.0313148 -0.0025 0.5
0.0443185 0.031635 6.50754e-19 0.5
0.0544513 0.000555 -0.0025 0.5
0.0544513 0.000555 0.0025 0.5
0.0547291 0.0002775 0.0025 0.5
0.0547291 0.0002775 -0.0025 0.5
0.0444084 0.0321485 -0.00231299 0.5
0.0444084 0.0321485 0.00231299 0.5
0.0444084 0.0321485 0.0025 0.5
0.0444084 0.0321485 -0.0025 0.5
0.0443919 0.03219 0.0025 0.5
0.0443919 0.03219 -0.0025 0.5
0.0444236 0.0322164 -0.00238118 0.5
0.0444236 0.0322164 0.00238118 0.5
0.0444236 0.0322164 0.0025 0.5
0.0444236 0.0322164 -0.0025 0.5
0.0550069 0.0002775 -5.58287e-21 0.5
0.04445 0.0323181 0.0025 0.5
0.04445 0.0323181 -0.0025 0.5
0.044506 0.032745 4.75215e-20 0.5
0.0552847 0.0002775 0.0025 0.5
0.0552847 0.0002775 -0.0025 0.5
0.0446272 0.033123 0.00170263 0.5
0.0446272 0.033123 -0.00170263 0.5
0.0555625 0.000555 -0.0025 0.5
0.0555625 0.000555 0.0025 0.5
0.0446272 0.033123 0.0025 0.5
0.0446272 0.033123 -0.0025 0.5
0.0558403 0.0002775 0.0025 0.5
0.0558403 0.0002775 -0.0025 0.5
0.0448751 0.0333 -0.0025 0.5
0.0448751 0.0333 0.0025 0.5
0.0561181 0.0002775 0 0.5
0.0451865 0.0336668 9.29346e-20 0.5
0.0452054 0.0336554 0.0025 0.5
0.0452054 0.0336554 -0.0025 0.5
0.0563959 0.0002775 0.0025 0.5
0.0563959 0.0002775 -0.0025 0.5
0.0566738 0.000555 -0.0025 0.5
0.0566738 0.000555 0.0025 0.5
0.0453679 0.0342168 -0.00162986 0.5
0.0453679 0.0342168 0.00162986 0.5
0.0453679 0.0342168 0.0025 0.5
0.0453679 0.0342168 -0.0025 0.5
0.0453555 0.03441 0.0025 0.5
0.0453555 0.03441 -0.0025 0.5
0.0569516 0.0002775 0.0025 0.5
0.0569516 0.0002775 -0.0025 0.5
0.0454676 0.0345036 0.00207841 0.5
0.0454676 0.0345036 -0.00207841 0.5
0.0454676 0.0345036 0.0025 0.5
0.0454676 0.0345036 -0.0025 0.5
0.0572294 0.0002775 0 0.5
0.0455359 0.034965 0 0.5
0.0575072 0.0002775 0.0025 0.5
0.0575072 0.0002775 -0.0025 0.5
0.0455483 0.035507 -0.00244161 0.5
0.0455483 0.035507 0.00244161 0.5
0.045537 0.03552 0.0025 0.5
0.045537 0.03552 -0.0025 0.5
0.0455483 0.035507 0.0025 0.5
0.0455483 0.035507 -0.0025 0.5
0.0455494 0.0355319 0.0024466 0.5
0.0455494 0.0355319 -0.0024466 0.5
0.0455494 0.0355319 0.0025 0.5
0.0455494 0.0355319 -0.0025 0.5
0.057785 0.000555 -0.0025 0.5
0.057785 0.000555 0.0025 0.5
0.0455612 0.0355886 -0.0025 0.5
0.0455612 0.0355886 0.0025 0.5
0.0455612 0.036075 -3.17413e-20 0.5
0.0580628 0.0002775 0.0025 0.5
0.0580628 0.0002775 -0.0025 0.5
0.0583406 0.0002775 0 0.5
0.0456996 0.0364918 -0.00187763 0.5
0.0456996 0.0364918 0.00187763 0.5
0.0456996 0.0364918 0.0025 0.5
0.0456996 0.0364918 -0.0025 0.5
0.0586184 0.0002775 0.0025 0.5
0.0586184 0.0002775 -0.0025 0.5
0.0459296 0.03663 0.0025 0.5
0.0459296 0.03663 -0.0025 0.5
0.0588963 0.000555 -0.0025 0.5
0.0588963 0.000555 0.0025 0.5
0.0591741 0.0002775 0.0025 0.5
0.0591741 0.0002775 -0.0025 0.5
0.0462838 0.0370183 -1.4279e-20 0.5
0.046299 0.0370031 0.0025 0.5
0.046299 0.0370031 -0.0025 0.5
0.0594519 0.0002775 -7.45167e-21 0.5
0.0464699 0.0375376 -0.00158829 0.5
0.0464699 0.0375376 0.00158829 0.5
0.0597297 0.0002775 0.0025 0.5
0.0597297 0.0002775 -0.0025 0.5
0.0464699 0.0375376 0.0025 0.5
0.0464699 0.0375376 -0.0025 0.5
0.0464646 0.03774 0.0025 0.5
0.0464646 0.03774 -0.0025 0.5
0.0465791 0.0378333 0.00207984 0.5
0.0465791 0.0378333 -0.00207984 0.5
0.0465791 0.0378333 0.0025 0.5
0.0465791 0.0378333 -0.0025 0.5
0.0600075 0.000555 -0.0025 0.5
0.0600075 0.000555 0.0025 0.5
0.0602853 0.0002775 0.0025 0.5
0.0602853 0.0002775 -0.0025 0.5
0.0466511 0.038295 2.89585e-21 0.5
0.0605631 0.0002775 -9.93434e-23 0.5
0.0466616 0.0388391 -0.00245098 0.5
0.0466616 0.0388391 0.00245098 0.5
0.0466519 0.03885 0.0025 0.5
0.0466519 0.03885 -0.0025 0.5
0.0466616 0.0388391 0.0025 0.5
0.0466616 0.0388391 -0.0025 0.5
0.0466624 0.0388601 0.00245455 0.5
0.0466624 0.0388601 -0.00245455 0.5
0.0466624 0.0388601 0.0025 0.5
0.0466624 0.0388601 -0.0025 0.5
0.0466725 0.0389323 -0.0025 0.5
0.0466725 0.0389323 0.0025 0.5
0.0608409 0.0002775 0.0025 0.5
0.0608409 0.0002775 -0.0025 0.5
0.0466725 0.039405 9.03298e-20 0.5
0.0611187 0.000555 -0.0025 0.5
0.0611187 0.000555 0.0025 0.5
0.0613966 0.0002775 -0.0025 0.5
0.0613966 0.0002775 0.0025 0.5
0.0467768 0.0398558 -0.00203049 0.5
0.0467768 0.0398558 0.00203049 0.5
0.0467768 0.0398558 0.0025 0.5
0.0467768 0.0398558 -0.0025 0.5
0.0616744 0.0002775 0 0.5
0.0469295 0.03996 0.0025 0.5
0.0469295 0.03996 -0.0025 0.5
0.0619522 0.0002775 -0.0025 0.5
0.0619522 0.0002775 0.0025 0.5
0.0470919 0.040379 0.0025 0.5
0.0470919 0.040379 -0.0025 0.5
0.047148 0.0405094 0 0.5
0.0471703 0.0405728 0.0025 0.5
0.0471703 0.0405728 -0.0025 0.5
0.06223 0.000555 -0.0025 0.5
0.06223 0.000555 0.0025 0.5
0.0625078 0.0002775 0.0025 0.5
0.0625078 0.0002775 -0.0025 0.5
0.0473903 0.04107 0.0025 0.5
0.0473903 0.04107 -0.0025 0.5
0.0627856 0.0002775 3.76374e-21 0.5
0.0475896 0.041264 0.0016263 0.5
0.0475896 0.041264 -0.0016263 0.5
0.0475896 0.041264 0.0025 0.5
0.0475896 0.041264 -0.0025 0.5
0.0630634 0.0002775 -0.0025 0.5
0.0630634 0.0002775 0.0025 0.5
0.0476695 0.041625 -5.62645e-20 0.5
0.0633413 0.000555 -0.0025 0.5
0.0633413 0.000555 0.0025 0.5
0.0636191 0.0002775 0.0025 0.5
0.0636191 0.0002775 -0.0025 0.5
0.0477124 0.0421087 -0.00217898 0.5
0.0477124 0.0421087 0.00217898 0.5
0.0477124 0.0421087 0.0025 0.5
0.0477124 0.0421087 -0.0025 0.5
0.0476759 0.04218 0.0025 0.5
0.0476759 0.04218 -0.0025 0.5
0.0477324 0.0422313 0.0022688 0.5
0.0477324 0.0422313 -0.0022688 0.5
0.0477324 0.0422313 0.0025 0.5
0.0477324 0.0422313 -0.0025 0.5
0.0638969 0.0002775 -5.95927e-22 0.5
0.0477703 0.042735 7.01599e-20 0.5
0.0641747 0.0002775 0.0025 0.5
0.0641747 0.0002775 -0.0025 0.5
0.0644525 0.000555 -0.0025 0.5
0.0644525 0.000555 0.0025 0.5
0.0477769 0.0432832 -0.00246934 0.5
0.0477769 0.0432832 0.00246934 0.5
0.0477706 0.04329 0.0025 0.5
0.0477706 0.04329 -0.0025 0.5
0.0477769 0.0432832 0.0025 0.5
0.0477769 0.0432832 -0.0025 0.5
0.0477773 0.0432965 0.00247078 0.5
0.0477773 0.0432965 -0.00247078 0.5
0.0477773 0.0432965 0.0025 0.5
0.0477773 0.0432965 -0.0025 0.5
0.0477838 0.0433924 -0.0025 0.5
0.0477838 0.0433924 0.0025 0.5
0.0647303 0.0002775 0.0025 0.5
0.0647303 0.0002775 -0.0025 0.5
0.0477837 0.043845 7.19627e-19 0.5
0.0650081 0.0002775 0 0.5
0.0478417 0.0443421 0.00223928 0.5
0.0478417 0.0443421 -0.00223928 0.5
0.0478417 0.0443421 0.0025 0.5
0.0478417 0.0443421 -0.0025 0.5
0.0652859 0.0002775 0.0025 0.5
0.0652859 0.0002775 -0.0025 0.5
0.0479131 0.0444 0.0025 0.5
0.0479131 0.0444 -0.0025 0.5
0.0478832 0.0444993 -0.00205267 0.5
0.0478832 0.0444993 0.00205267 0.5
0.0478832 0.0444993 0.0025 0.5
0.0478832 0.0444993 -0.0025 0.5
0.0655638 0.000555 -0.0025 0.5
0.0655638 0.000555 0.0025 0.5
0.0479524 0.044955 -9.66526e-19 0.5
0.0658416 0.0002775 0.0025 0.5
0.0658416 0.0002775 -0.0025 0.5
0.0480232 0.0452709 0.00142281 0.5
0.0480232 0.0452709 -0.00142281 0.5
0.0480232 0.0452709 0.0025 0.5
0.0480232 0.0452709 -0.0025 0.5
0.0661194 0.0002775 -1.81913e-21 0.5
0.0482332 0.04551 0.0025 0.5
0.0482332 0.04551 -0.0025 0.5
0.0663972 0.0002775 0.0025 0.5
0.0663972 0.0002775 -0.0025 0.5
0.066675 0.000555 -0.0025 0.5
0.066675 0.000555 0.0025 0.5
0.0484525 0.045952 0.0025 0.5
0.0484525 0.045952 -0.0025 0.5
0.0484704 0.04605 9.8976e-19 0.5
0.0669528 0.0002775 0.0025 0.5
0.0669528 0.0002775 -0.0025 0.5
0.0485143 0.0462398 0.0025 0.5
0.0485143 0.0462398 -0.0025 0.5
0.0672306 0.0002775 9.10876e-20 0.5
0.048527 0.04662 -0.0025 0.5
0.048527 0.04662 0.0025 0.5
0.0675084 0.0002775 0.0025 0.5
0.0675084 0.0002775 -0.0025 0.5
0.0486796 0.0468351 0.00153097 0.5
0.0486796 0.0468351 -0.00153097 0.5
0.0486796 0.0468351 0.0025 0.5
0.0486796 0.0468351 -0.0025 0.5
0.0487211 0.047175 -1.40969e-18 0.5
0.0677863 0.000555 -0.0025 0.5
0.0677863 0.000555 0.0025 0.5
0.0680641 0.0002775 0.0025 0.5
0.0680641 0.0002775 -0.0025 0.5
0.0487482 0.0475834 -0.00183942 0.5
0.0487482 0.0475834 0.00183942 0.5
0.0487482 0.0475834 0.0025 0.5
0.0487482 0.0475834 -0.0025 0.5
0.0486862 0.04773 0.0025 0.5
0.0486862 0.04773 -0.0025 0.5
0.0683419 0.0002775 1.14121e-19 0.5
0.0487807 0.0478442 0.00198561 0.5
0.0487807 0.0478442 -0.00198561 0.5
0.0487807 0.0478442 0.0025 0.5
0.0487807 0.0478442 -0.0025 0.5
0.0488065 0.048285 1.31935e-18 0.5
0.0686197 0.0002775 0.0025 0.5
0.0686197 0.0002775 -0.0025 0.5
0.0688975 0.000555 -0.0025 0.5
0.0688975 0.000555 0.0025 0.5
0.048821 0.0487661 -0.00216711 0.5
0.048821 0.0487661 0.00216711 0.5
0.048821 0.0487661 -0.0025 0.5
0.048821 0.0487661 0.0025 0.5
0.0487712 0.04884 -0.0025 0.5
0.0487712 0.04884 0.0025 0.5
0.0488292 0.0489057 -0.00220385 0.5
0.0488292 0.0489057 0.00220385 0.5
0.0488292 0.0489057 -0.0025 0.5
0.0488292 0.0489057 0.0025 0.5
0.0691753 0.0002775 0.0025 0.5
0.0691753 0.0002775 -0.0025 0.5
0.0694531 0.0002775 9.36031e-20 0.5
0.0488431 0.049395 -1.42295e-18 0.5
0.0697309 0.0002775 0.0025 0.5
0.0697309 0.0002775 -0.0025 0.5
0.0488501 0.0499052 -0.00229811 0.5
0.0488501 0.0499052 0.00229811 0.5
0.0488501 0.0499052 0.0025 0.5
0.0488501 0.0499052 -0.0025 0.5
0.0488141 0.04995 0.0025 0.5
0.0488141 0.04995 -0.0025 0.5
0.0488525 0.0499924 0.00230881 0.5
0.0488525 0.0499924 -0.00230881 0.5
0.0488525 0.0499924 -0.0025 0.5
0.0488525 0.0499924 0.0025 0.5
0.0700088 0.000555 -0.0025 0.5
0.0700088 0.000555 0.0025 0.5
0.0488594 0.050505 2.32495e-20 0.5
0.0702866 0.0002775 0.0025 0.5
0.0702866 0.0002775 -0.0025 0.5
0.0705644 0.0002775 2.66209e-19 0.5
0.0488632 0.0510282 -0.00235672 0.5
0.0488632 0.0510282 0.00235672 0.5
0.0488632 0.0510282 0.0025 0.5
0.0488632 0.0510282 -0.0025 0.5
0.0488356 0.05106 0.0025 0.5
0.0488356 0.05106 -0.0025 0.5
0.0488641 0.0510909 0.00236074 0.5
0.0488641 0.0510909 -0.00236074 0.5
0.0488641 0.0510909 0.0025 0.5
0.0488641 0.0510909 -0.0025 0.5
0.0708422 0.0002775 0.0025 0.5
0.0708422 0.0002775 -0.0025 0.5
0.0488678 0.051615 -2.82745e-18 0.5
0.07112 0.000555 -0.0025 0.5
0.07112 0.000555 0.0025 0.5
0.0713978 0.0002775 0.0025 0.5
0.0713978 0.0002775 -0.0025 0.5
0.0488694 0.0521444 0.0023849 0.5
0.0488694 0.0521444 -0.0023849 0.5
0.0488694 0.0521444 0.0025 0.5
0.0488694 0.0521444 -0.0025 0.5
0.0488464 0.05217 0.0025 0.5
0.0488464 0.05217 -0.0025 0.5
0.0488697 0.0521952 0.00238633 0.5
0.0488697 0.0521952 -0.00238633 0.5
0.0488697 0.0521952 0.0025 0.5
0.0488697 0.0521952 -0.0025 0.5
0.0716756 0.0002775 9.36031e-20 0.5
0.0488714 0.052725 2.66388e-18 0.5
0.0719534 0.0002775 0.0025 0.5
0.0719534 0.0002775 -0.0025 0.5
0.0722313 0.000555 -0.0025 0.5
0.0722313 0.000555 0.0025 0.5
0.0488721 0.0532572 0.00239716 0.5
0.0488721 0.0532572 -0.00239716 0.5
0.0488721 0.0532572 0.0025 0.5
0.0488721 0.0532572 -0.0025 0.5
0.0488512 0.05328 -0.0025 0.5
0.0488512 0.05328 0.0025 0.5
0.0488723 0.0533027 0.00239774 0.5
0.0488723 0.0533027 -0.00239774 0.5
0.0488723 0.0533027 0.0025 0.5
0.0488723 0.0533027 -0.0025 0.5
0.0725091 0.0002775 0.0025 0.5
0.0725091 0.0002775 -0.0025 0.5
0.048873 0.053835 -5.12708e-18 0.5
0.0727869 0.0002775 1.145e-19 0.5
0.0730647 0.0002775 0.0025 0.5
0.0730647 0.0002775 -0.0025 0.5
0.048873 0.0543681 0.00240115 0.5
0.048873 0.0543681 -0.00240115 0.5
0.048873 0.0543681 0.0025 0.5
0.048873 0.0543681 -0.0025 0.5
0.0488527 0.05439 0.0025 0.5
0.0488527 0.05439 -0.0025 0.5
0.048873 0.0544119 0.00240115 0.5
0.048873 0.0544119 -0.00240115 0.5
0.048873 0.0544119 0.0025 0.5
0.048873 0.0544119 -0.0025 0.5
0.0733425 0.000555 -0.0025 0.5
0.0733425 0.000555 0.0025 0.5
0.048873 0.054945 5.1264e-18 0.5
0.0736203 0.0002775 0.0025 0.5
0.0736203 0.0002775 -0.0025 0.5
0.0738981 0.0002775 1.12679e-19 0.5
0.0488724 0.0554774 -0.0023981 0.5
0.0488724 0.0554774 0.0023981 0.5
0.0488724 0.0554774 0.0025 0.5
0.0488724 0.0554774 -0.0025 0.5
0.0488514 0.0555 0.0025 0.5
0.0488514 0.0555 -0.0025 0.5
0.0488722 0.0555227 0.00239757 0.5
0.0488722 0.0555227 -0.00239757 0.5
0.0488722 0.0555227 0.0025 0.5
0.0488722 0.0555227 -0.0025 0.5
0.0741759 0.0002775 0.0025 0.5
0.0741759 0.0002775 -0.0025 0.5
0.0488716 0.056055 -2.47826e-18 0.5
0.0744538 0.000555 -0.0025 0.5
0.0744538 0.000555 0.0025 0.5
0.0747316 0.0002775 0.0025 0.5
0.0747316 0.0002775 -0.0025 0.5
0.0488704 0.0565855 0.00238947 0.5
0.0488704 0.0565855 -0.00238947 0.5
0.0488704 0.0565855 0.0025 0.5
0.0488704 0.0565855 -0.0025 0.5
0.0488478 0.05661 0.0025 0.5
0.0488478 0.05661 -0.0025 0.5
0.0488702 0.0566347 0.00238853 0.5
0.0488702 0.0566347 -0.00238853 0.5
0.0488702 0.0566347 0.0025 0.5
0.0488702 0.0566347 -0.0025 0.5
0.0750094 0.0002775 1.14375e-19 0.5
0.0488691 0.057165 2.66159e-18 0.5
0.0752872 0.0002775 0.0025 0.5
0.0752872 0.0002775 -0.0025 0.5
0.075565 0.000555 -0.0025 0.5
0.075565 0.000555 0.0025 0.5
0.0488677 0.0576927 0.00237697 0.5
0.0488677 0.0576927 -0.00237697 0.5
0.0488677 0.0576927 0.0025 0.5
0.0488677 0.0576927 -0.0025 0.5
0.0488426 0.05772 0.0025 0.5
0.0488426 0.05772 -0.0025 0.5
0.0488674 0.0577476 0.00237561 0.5
0.0488674 0.0577476 -0.00237561 0.5
0.0488674 0.0577476 0.0025 0.5
0.0488674 0.0577476 -0.0025 0.5
0.0758428 0.0002775 0.0025 0.5
0.0758428 0.0002775 -0.0025 0.5
0.0488659 0.058275 -2.64597e-18 0.5
0.0761206 0.0002775 1.14623e-19 0.5
0.0763984 0.0002775 0.0025 0.5
0.0763984 0.0002775 -0.0025 0.5
0.0488635 0.0587985 0.00235814 0.5
0.0488635 0.0587985 -0.00235814 0.5
0.0488635 0.0587985 0.0025 0.5
0.0488635 0.0587985 -0.0025 0.5
0.0488348 0.05883 0.0025 0.5
0.0488348 0.05883 -0.0025 0.5
0.0488629 0.0588621 0.00235547 0.5
0.0488629 0.0588621 -0.00235547 0.5
0.0488629 0.0588621 0.0025 0.5
0.0488629 0.0588621 -0.0025 0.5
0.0766763 0.000555 -0.0025 0.5
0.0766763 0.000555 0.0025 0.5
0.0488604 0.059385 2.59172e-18 0.5
0.0769541 0.0002775 0.0025 0.5
0.0769541 0.0002775 -0.0025 0.5
0.0772319 0.0002775 1.08196e-19 0.5
0.0488574 0.0599025 0.00233086 0.5
0.0488574 0.0599025 -0.00233086 0.5
0.0488574 0.0599025 0.0025 0.5
0.0488574 0.0599025 -0.0025 0.5
0.0488238 0.05994 0.0025 0.5
0.0488238 0.05994 -0.0025 0.5
0.0488565 0.0599784 0.00232684 0.5
0.0488565 0.0599784 -0.00232684 0.5
0.0488565 0.0599784 0.0025 0.5
0.0488565 0.0599784 -0.0025 0.5
0.0775097 0.0002775 0.0025 0.5
0.0775097 0.0002775 -0.0025 0.5
0.0488535 0.060495 -3.97228e-18 0.5
0.0777875 0.000555 -0.0025 0.5
0.0777875 0.000555 0.0025 0.5
0.0780653 0.0002775 0.0025 0.5
0.0780653 0.0002775 -0.0025 0.5
0.0488492 0.0610043 0.00229405 0.5
0.0488492 0.0610043 -0.00229405 0.5
0.0488492 0.0610043 0.0025 0.5
0.0488492 0.0610043 -0.0025 0.5
0.0488091 0.06105 0.0025 0.5
0.0488091 0.06105 -0.0025 0.5
0.0488477 0.0610973 0.00228703 0.5
0.0488477 0.0610973 -0.00228703 0.5
0.0488477 0.0610973 0.0025 0.5
0.0488477 0.0610973 -0.0025 0.5
0.0783431 0.0002775 8.26565e-20 0.5
0.0488434 0.061605 4.21071e-18 0.5
0.0786209 0.0002775 0.0025 0.5
0.0786209 0.0002775 -0.0025 0.5
0.0788988 0.000555 -0.0025 0.5
0.0788988 0.000555 0.0025 0.5
0.0488383 0.0621033 -0.00224474 0.5
0.0488383 0.0621033 0.00224474 0.5
0.0488383 0.0621033 0.0025 0.5
0.0488383 0.0621033 -0.0025 0.5
0.0487901 0.06216 0.0025 0.5
0.0487901 0.06216 -0.0025 0.5
0.0488359 0.0622191 0.00223396 0.5
0.0488359 0.0622191 -0.00223396 0.5
0.0488359 0.0622191 -0.0025 0.5
0.0488359 0.0622191 0.0025 0.5
0.0791766 0.0002775 0.0025 0.5
0.0791766 0.0002775 -0.0025 0.5
0.0794544 0.0002775 9.54222e-20 0.5
0.0488307 0.062715 -2.77166e-20 0.5
0.0797322 0.0002775 0.0025 0.5
0.0797322 0.0002775 -0.0025 0.5
0.0488254 0.0632005 -0.00218688 0.5
0.0488254 0.0632005 0.00218688 0.5
0.0488254 0.0632005 0.0025 0.5
0.0488254 0.0632005 -0.0025 0.5
0.0487689 0.06327 0.0025 0.5
0.0487689 0.06327 -0.0025 0.5
0.0488223 0.0633426 0.00217283 0.5
0.0488223 0.0633426 -0.00217283 0.5
0.0488223 0.0633426 0.0025 0.5
0.0488223 0.0633426 -0.0025 0.5
0.08001 0.000555 -0.0025 0.5
0.08001 0.000555 0.0025 0.5
0.0802878 0.0002775 0.0025 0.5
0.0802878 0.0002775 -0.0025 0.5
0.0488169 0.063825 2.83318e-20 0.5
0.0805656 0.0002775 1.15842e-19 0.5
0.0488118 0.0642969 -0.00212558 0.5
0.0488118 0.0642969 0.00212558 0.5
0.0488118 0.0642969 0.0025 0.5
0.0488118 0.0642969 -0.0025 0.5
0.0487475 0.06438 0.0025 0.5
0.0487475 0.06438 -0.0025 0.5
0.0808434 0.0002775 0.0025 0.5
0.0808434 0.0002775 -0.0025 0.5
0.048808 0.0644669 -0.00210872 0.5
0.048808 0.0644669 0.00210872 0.5
0.048808 0.0644669 0.0025 0.5
0.048808 0.0644669 -0.0025 0.5
0.0811213 0.000555 -0.0025 0.5
0.0811213 0.000555 0.0025 0.5
0.0488028 0.064935 0 0.5
0.0813991 0.0002775 0.0025 0.5
0.0813991 0.0002775 -0.0025 0.5
0.0488061 0.0654012 -0.00210015 0.5
0.0488061 0.0654012 0.00210015 0.5
0.0488061 0.0654012 0.0025 0.5
0.0488061 0.0654012 -0.0025 0.5
0.0487436 0.06549 0.0025 0.5
0.0487436 0.06549 -0.0025 0.5
0.0816769 0.0002775 9.5745e-20 0.5
0.0488086 0.0655763 0.00211126 0.5
0.0488086 0.0655763 -0.00211126 0.5
0.0488086 0.0655763 0.0025 0.5
0.0488086 0.0655763 -0.0025 0.5
0.048895 0.0656231 -0.0025 0.5
0.048895 0.0656231 0.0025 0.5
0.0819547 0.0002775 0.0025 0.5
0.0819547 0.0002775 -0.0025 0.5
0.0488119 0.066045 0 0.5
0.0822325 0.000555 -0.0025 0.5
0.0822325 0.000555 0.0025 0.5
0.0825103 0.0002775 0.0025 0.5
0.0825103 0.0002775 -0.0025 0.5
0.0491728 0.0663225 0.0025 0.5
0.0491728 0.0663225 -0.0025 0.5
0.0494506 0.0663225 0 0.5
0.0827881 0.0002775 8.32524e-20 0.5
0.0500063 0.066045 -0.0025 0.5
0.0500063 0.066045 0.0025 0.5
0.0497284 0.0663225 0.0025 0.5