0 	0 	0 	0
0.000446734 	0.000142367 	0.00297736 	3.61962e-26
0.000893467 	0.000284404 	0.00593482 	7.2184e-26
0.0013402 	0.000388108 	0.00818895 	8.02516e-26
0.00178693 	0.000455768 	0.0097829 	6.24e-26
0.00223367 	0.00051965 	0.0113453 	4.42541e-26
0.0026804 	0.000512155 	0.0120873 	2.61178e-26
0.00312714 	0.000504659 	0.0128293 	7.98159e-27
0.00357387 	0.000485091 	0.0133875 	8.6089e-27
0.0040206 	0.000457157 	0.0137944 	2.53223e-26
0.00446734 	0.00042851 	0.0141922 	4.26022e-26
0.00491407 	0.000399384 	0.0144244 	7.09656e-26
0.0053608 	0.000370258 	0.0146566 	9.9329e-26
0.00580754 	0.000341517 	0.014803 	1.08353e-25
0.00625427 	0.000313932 	0.0148827 	1.03183e-25
0.00670101 	0.00028605 	0.014952 	9.59898e-26
0.00714774 	0.000259652 	0.014896 	6.76264e-26
0.00759447 	0.000233254 	0.01484 	3.9263e-26
0.00804121 	0.000207469 	0.0147192 	2.16752e-26
0.00848794 	0.000182606 	0.0145535 	1.0131e-26
0.00893467 	0.000157759 	0.0143793 	0
0.00938141 	0.00013502 	0.0141309 	0
0.00982814 	0.00011228 	0.0138824 	0
0.0102749 	9.09959e-05 	0.0135974 	0
0.0107216 	7.08217e-05 	0.0132894 	0
0.0111683 	5.09509e-05 	0.0129763 	0
0.0116151 	3.35721e-05 	0.012628 	0
0.0120618 	1.61934e-05 	0.0122797 	0
0.0125085 	6.37258e-07 	0.0119155 	0
0.0129553 	-1.39017e-05 	0.0115426 	0
0.013402 	-2.79663e-05 	0.0111678 	0
0.0138487 	-3.97447e-05 	0.010783 	0
0.0142955 	-5.1523e-05 	0.0103982 	0
0.0147422 	-6.14811e-05 	0.0100124 	0
0.0151889 	-7.06609e-05 	0.00962626 	0
0.0156357 	-7.92953e-05 	0.00924127 	0
0.0160824 	-8.6094e-05 	0.00886201 	0
0.0165291 	-9.28926e-05 	0.00848275 	0
0.0169759 	-9.80758e-05 	0.00811265 	0
0.0174226 	-0.000102744 	0.00774672 	0
0.0178693 	-0.000106873 	0.00738442 	0
0.0183161 	-0.000109677 	0.00703657 	0
0.0187628 	-0.000112481 	0.00668873 	0
0.0192095 	-0.000113974 	0.00635612 	0
0.0196563 	-0.000115183 	0.00602963 	0
0.020103 	-0.000115913 	0.00570842 	0
0.0205497 	-0.000115791 	0.0054053 	0
0.0209965 	-0.000115669 	0.00510218 	0
0.0214432 	-0.000114573 	0.00481699 	0
0.0218899 	-0.000113371 	0.00453816 	0
0.0223367 	-0.000111786 	0.00426542 	0
0.0227834 	-0.000109739 	0.00401088 	0
0.0232302 	-0.000107691 	0.00375634 	0
0.0236769 	-0.000104996 	0.00351979 	0
0.0241236 	-0.000102314 	0.0032888 	0
0.0245704 	-9.93573e-05 	0.00306394 	0
0.0250171 	-9.62277e-05 	0.00285512 	0
0.0254638 	-9.3098e-05 	0.0026463 	0
0.0259106 	-8.96069e-05 	0.00245349 	0
0.0263573 	-8.61925e-05 	0.00226496 	0
0.026804 	-8.26136e-05 	0.00208186 	0
0.0272508 	-7.9053e-05 	0.00191132 	0
0.0276975 	-7.54924e-05 	0.00174079 	0
0.0281442 	-7.18055e-05 	0.00158279 	0
0.028591 	-6.82156e-05 	0.00142764 	0
0.0290377 	-6.45656e-05 	0.00127659 	0
0.0294844 	-6.10455e-05 	0.00113397 	0
0.0299312 	-5.75253e-05 	0.000991356 	0
0.0303779 	-5.40736e-05 	0.000856727 	0
0.0308246 	-5.07092e-05 	0.00072361 	0
0.0312714 	-4.7383e-05 	0.000592746 	0
0.0317181 	-4.42429e-05 	0.000465979 	0
0.0321648 	-4.11028e-05 	0.000339213 	0
0.0326116 	-3.81839e-05 	0.000215174 	0
0.0330583 	-3.53217e-05 	9.15359e-05 	0
0.033505 	-3.25886e-05 	-3.21203e-05 	0
0.0339518 	-3.00609e-05 	-0.000155883 	0
0.0343985 	-2.75332e-05 	-0.000279647 	0
0.0348452 	-2.53834e-05 	-0.000406372 	0
0.035292 	-2.3252e-05 	-0.000533503 	0
0.0357387 	-2.1353e-05 	-0.000663234 	0
0.0361854 	-1.96826e-05 	-0.000796924 	0
0.0366322 	-1.80122e-05 	-0.000930615 	0
0.0370789 	-1.69087e-05 	-0.00107309 	0
0.0375256 	-1.57836e-05 	-0.00121644 	0
0.0379724 	-1.50261e-05 	-0.00136513 	-1.65417e-26
0.0384191 	-1.45542e-05 	-0.00152108 	-5.76297e-26
0.0388658 	-1.40823e-05 	-0.00167704 	-9.87178e-26
0.0393126 	-1.44504e-05 	-0.00184738 	-1.37788e-25
0.0397593 	-1.47576e-05 	-0.0020187 	-1.78684e-25
0.040206 	-1.56093e-05 	-0.00219805 	-1.74894e-25
0.0406528 	-1.68427e-05 	-0.00238723 	-1.15572e-25
0.0410995 	-1.80761e-05 	-0.00257641 	-5.62502e-26
0.0415462 	-2.05091e-05 	-0.00278485 	3.25904e-27
0.041993 	-2.28391e-05 	-0.00299404 	6.21312e-26
0.0424397 	-2.59408e-05 	-0.00321358 	8.34212e-26
0.0428864 	-2.95618e-05 	-0.00344451 	6.51872e-26
0.0433332 	-3.32315e-05 	-0.00367561 	4.65203e-26
0.0437799 	-3.84639e-05 	-0.00392909 	2.65621e-26
0.0442266 	-4.35932e-05 	-0.00418299 	8.58546e-27
0.0446734 	-4.97752e-05 	-0.0044487 	-8.19038e-27
0.0451201 	-5.66505e-05 	-0.00472615 	-2.53398e-26
0.0455668 	-6.37064e-05 	-0.00500409 	-4.40845e-26
0.0460136 	-7.26122e-05 	-0.00530476 	-6.16842e-26
0.0464603 	-8.14882e-05 	-0.00560558 	-7.85708e-26
0.046907 	-9.17424e-05 	-0.00591818 	-7.75472e-26
0.0473538 	-0.000102887 	-0.00624131 	-6.03978e-26
0.0478005 	-0.000114311 	-0.00656527 	-4.09936e-26
0.0482472 	-0.000127997 	-0.00690858 	-2.41071e-26
0.048694 	-0.000141683 	-0.00725188 	-7.22053e-27
0.0491407 	-0.000157091 	-0.00760455 	0
0.0495874 	-0.000173587 	-0.00796468 	0
0.0500342 	-0.000190437 	-0.0083257 	1.30521e-27
0.0504809 	-0.000209993 	-0.0086979 	3.38623e-26
0.0509276 	-0.00022955 	-0.00907009 	6.64193e-26
0.0513744 	-0.000251133 	-0.00944571 	1.03406e-25
0.0518211 	-0.000273966 	-0.00982358 	1.36057e-25
0.0522678 	-0.000297216 	-0.0102014 	1.63017e-25
0.0527146 	-0.000323483 	-0.0105767 	1.3046e-25
0.0531613 	-0.00034975 	-0.010952 	9.79031e-26
0.053608 	-0.000378195 	-0.0113198 	6.08972e-26
0.0540548 	-0.000407958 	-0.0116822 	2.82461e-26
0.0545015 	-0.00043814 	-0.0120419 	0
0.0549482 	-0.000471316 	-0.0123788 	0
0.055395 	-0.000504493 	-0.0127157 	0
0.0558417 	-0.000539588 	-0.0130275 	0
0.0562884 	-0.00057587 	-0.0133237 	0
0.0567352 	-0.000612395 	-0.0136122 	0
0.0571819 	-0.000651108 	-0.0138499 	0
0.0576286 	-0.00068982 	-0.0140876 	0
0.0580754 	-0.000729131 	-0.0142736 	0
0.0585221 	-0.000769032 	-0.0144313 	0
0.0589688 	-0.000808465 	-0.0145723 	0
0.0594156 	-0.000847164 	-0.0146253 	0
0.0598623 	-0.000885863 	-0.0146782 	0
0.060309 	-0.000921295 	-0.0146448 	0
0.0607558 	-0.000955781 	-0.0145696 	0
0.0612025 	-0.000988576 	-0.0144686 	0
0.0616492 	-0.00101743 	-0.0142572 	0
0.062096 	-0.00104629 	-0.0140458 	0
0.0625427 	-0.00106642 	-0.0137476 	0
0.0629894 	-0.00108379 	-0.0134131 	0
0.0634362 	-0.00109415 	-0.0130338 	0
0.0638829 	-0.00108132 	-0.0124828 	0
0.0643296 	-0.00106849 	-0.0119318 	0
0.0647764 	-0.000913292 	-0.0108898 	0
0.0652231 	-0.000701328 	-0.0096556 	0
0.0656698 	-0.000482965 	-0.00818889 	0
0.0661166 	-0.00027796 	-0.00599941 	0
0.0665633 	-7.2954e-05 	-0.00380993 	0
0.0670101 	-1.75209e-05 	-0.00224839 	0
0.0674568 	-7.30517e-06 	-0.000937444 	0
0.0679035 	5.2006e-13 	1.03375e-11 	0
0.0683503 	2.83947e-13 	5.64441e-12 	0
0.068797 	4.78339e-14 	9.5134e-13 	0
0.0692437 	-2.03639e-19 	3.95358e-16 	0
0.0696905 	-9.18226e-20 	1.61454e-16 	0
0.0701372 	-1.58102e-20 	3.49947e-20 	0
0.0705839 	-1.94739e-20 	1.6287e-20 	0
0.0710307 	-2.31376e-20 	-2.42077e-21 	0
0.0714774 	-2.36543e-20 	-1.11063e-20 	0
0.0719241 	-2.33511e-20 	-1.76655e-20 	0
0.0723709 	-2.2515e-20 	-2.2937e-20 	0
0.0728176 	-2.0426e-20 	-2.55333e-20 	0
0.0732643 	-1.83371e-20 	-2.81296e-20 	0
0.0737111 	-1.66005e-20 	-2.96232e-20 	0
0.0741578 	-1.4903e-20 	-3.08833e-20 	0
0.0746045 	-1.33886e-20 	-3.19979e-20 	-1.31715e-42
0.0750513 	-1.21905e-20 	-3.28079e-20 	-5.4974e-42
0.075498 	-1.09923e-20 	-3.36179e-20 	-9.67764e-42
0.0759447 	-1.0094e-20 	-3.4319e-20 	-1.40913e-41
0.0763915 	-9.2416e-21 	-3.49945e-20 	-1.78744e-41
0.0768382 	-8.47066e-21 	-3.56677e-20 	-1.87085e-41
0.0772849 	-7.83768e-21 	-3.63263e-20 	-1.45282e-41
0.0777317 	-7.20469e-21 	-3.69849e-20 	-1.0348e-41
0.0781784 	-6.6947e-21 	-3.7671e-20 	-6.01547e-42
0.0786251 	-6.20207e-21 	-3.83579e-20 	-2.23237e-42
0.0790719 	-5.74484e-21 	-3.90643e-20 	0
0.0795186 	-5.34502e-21 	-3.97966e-20 	0
0.0799653 	-4.9452e-21 	-4.05288e-20 	0
0.0804121 	-4.6017e-21 	-4.13084e-20 	0
0.0808588 	-4.26544e-21 	-4.20918e-20 	0
0.0813055 	-3.94661e-21 	-4.28977e-20 	-1.684e-42
0.0817523 	-3.65508e-21 	-4.37334e-20 	-6.00093e-42
0.082199 	-3.36354e-21 	-4.4569e-20 	-1.03179e-41
0.0826457 	-3.10045e-21 	-4.54533e-20 	-1.43757e-41
0.0830925 	-2.84082e-21 	-4.63408e-20 	-1.82178e-41
0.0835392 	-2.59003e-21 	-4.7251e-20 	-1.70222e-41
0.0839859 	-2.35305e-21 	-4.81892e-20 	-9.23984e-42
0.0844327 	-2.11607e-21 	-4.91275e-20 	-1.45752e-42
0.0848794 	-1.89286e-21 	-5.01133e-20 	5.88843e-42
0.0853261 	-1.6715e-21 	-5.11013e-20 	1.29152e-41
0.0857729 	-1.45367e-21 	-5.21121e-20 	1.49855e-41
0.0862196 	-1.24222e-21 	-5.3149e-20 	1.15201e-41
0.0866663 	-1.03078e-21 	-5.41859e-20 	8.05477e-42
0.0871131 	-8.23232e-22 	-5.527e-20 	4.7455e-42
0.0875598 	-6.16854e-22 	-5.63553e-20 	1.56079e-42
0.0880065 	-4.10179e-22 	-4.62951e-20 	0
0.0884533 	-2.05358e-22 	-2.34141e-20 	0
0.0889 	0 	0 	0
