# f_l  POINT_DATA 1351
#  x  y  z  f_l
0.0578962 0.001665 1.16795e-20 0.5
0.0579318 0.00125665 -0.00183942 0.5
0.0579318 0.00125665 0.00183942 0.5
0.0579088 0.0020963 0.0019428 0.5
0.0579088 0.0020963 -0.0019428 0.5
0.0579204 0.00235526 0.00189071 0.5
0.0579204 0.00235526 -0.00189071 0.5
0.0579318 0.00125665 0.0025 0.5
0.0579318 0.00125665 -0.0025 0.5
0.0579331 0.002775 -2.29719e-19 0.5
0.0579088 0.0020963 0.0025 0.5
0.0579088 0.0020963 -0.0025 0.5
0.0579901 0.000905172 -0.00157735 0.5
0.0579901 0.000905172 0.00157735 0.5
0.0579204 0.00235526 0.0025 0.5
0.0579204 0.00235526 -0.0025 0.5
0.0579901 0.000905172 0.0025 0.5
0.0579901 0.000905172 -0.0025 0.5
0.0579449 0.00317033 -0.00178075 0.5
0.0579449 0.00317033 0.00178075 0.5
0.0579635 0.00222 0.0025 0.5
0.0579635 0.00222 -0.0025 0.5
0.0580081 0.00111 0.0025 0.5
0.0580081 0.00111 -0.0025 0.5
0.0579449 0.00317033 0.0025 0.5
0.0579449 0.00317033 -0.0025 0.5
0.0579602 0.00350503 -0.00171159 0.5
0.0579602 0.00350503 0.00171159 0.5
0.0579719 0.003885 -7.57095e-20 0.5
0.0579602 0.00350503 0.0025 0.5
0.0579602 0.00350503 -0.0025 0.5
0.0580065 0.00333 0.0025 0.5
0.0580065 0.00333 -0.0025 0.5
0.057985 0.00424022 -0.00160011 0.5
0.057985 0.00424022 0.00160011 0.5
0.057985 0.00424022 0.0025 0.5
0.057985 0.00424022 -0.0025 0.5
0.0580095 0.00466425 -0.00148986 0.5
0.0580095 0.00466425 0.00148986 0.5
0.0580222 0.004995 0 0.5
0.0580095 0.00466425 0.0025 0.5
0.0580095 0.00466425 -0.0025 0.5
0.0582127 0.000427219 0.0025 0.5
0.0582127 0.000427219 -0.0025 0.5
0.0580526 0.00444 0.0025 0.5
0.0580526 0.00444 -0.0025 0.5
0.0580365 0.00529881 -0.00136852 0.5
0.0580365 0.00529881 0.00136852 0.5
0.0583026 0.000435738 0 0.5
0.0580365 0.00529881 0.0025 0.5
0.0580365 0.00529881 -0.0025 0.5
0.05809 0.00609602 3.20513e-21 0.5
0.0580766 0.0058413 -0.0025 0.5
0.0580766 0.0058413 0.0025 0.5
0.0581074 0.00555 0.0025 0.5
0.0581074 0.00555 -0.0025 0.5
0.0581036 0.00634176 0.0025 0.5
0.0581036 0.00634176 -0.0025 0.5
0.0584685 0.000427219 0.0025 0.5
0.0584685 0.000427219 -0.0025 0.5
0.0581718 0.00666 0.0025 0.5
0.0581718 0.00666 -0.0025 0.5
0.0581805 0.00720777 9.7814e-20 0.5
0.0581696 0.00704422 -0.0025 0.5
0.0581696 0.00704422 0.0025 0.5
0.0581913 0.00736411 -0.0025 0.5
0.0581913 0.00736411 0.0025 0.5
0.0582454 0.00777 0.0025 0.5
0.0582454 0.00777 -0.0025 0.5
0.0583068 0.00834511 -1.68106e-19 0.5
0.0583008 0.00828519 0.0025 0.5
0.0583008 0.00828519 -0.0025 0.5
0.0588963 0.000654263 -0.0025 0.5
0.0588963 0.000654263 0.0025 0.5
0.058307 0.0083586 0.0025 0.5
0.058307 0.0083586 -0.0025 0.5
0.0583272 0.00888 0.0025 0.5
0.0583272 0.00888 -0.0025 0.5
0.0584397 0.00943906 -1.85741e-19 0.5
0.0591741 0.0002775 0.0025 0.5
0.0591741 0.0002775 -0.0025 0.5
0.0584338 0.00934191 -0.0025 0.5
0.0584338 0.00934191 0.0025 0.5
0.058446 0.00954027 -0.0025 0.5
0.058446 0.00954027 0.0025 0.5
0.0584153 0.00999 -0.0025 0.5
0.0584153 0.00999 0.0025 0.5
0.0594519 0.0002775 -7.45167e-21 0.5
0.0585557 0.0105535 0 0.5
0.0585433 0.0103425 0.0025 0.5
0.0585433 0.0103425 -0.0025 0.5
0.0585071 0.0111 0.0025 0.5
0.0585071 0.0111 -0.0025 0.5
0.0585689 0.010773 0.0025 0.5
0.0585689 0.010773 -0.0025 0.5
0.0586368 0.0113592 0.00133259 0.5
0.0586368 0.0113592 -0.00133259 0.5
0.0586368 0.0113592 -0.0025 0.5
0.0586368 0.0113592 0.0025 0.5
0.0597297 0.0002775 0.0025 0.5
0.0597297 0.0002775 -0.0025 0.5
0.058653 0.011655 3.63032e-19 0.5
0.0586713 0.0119853 -0.00148799 0.5
0.0586713 0.0119853 0.00148799 0.5
0.0585983 0.01221 0.0025 0.5
0.0585983 0.01221 -0.0025 0.5
0.0586713 0.0119853 -0.0025 0.5
0.0586713 0.0119853 0.0025 0.5
0.0587141 0.0123919 0.0016805 0.5
0.0587141 0.0123919 -0.0016805 0.5
0.0587141 0.0123919 0.0025 0.5
0.0587141 0.0123919 -0.0025 0.5
0.0600075 0.000555 -0.0025 0.5
0.0600075 0.000555 0.0025 0.5
0.0587328 0.012765 -9.59046e-19 0.5
0.0586831 0.01332 -0.0025 0.5
0.0586831 0.01332 0.0025 0.5
0.0587518 0.0131757 0.00184992 0.5
0.0587518 0.0131757 -0.00184992 0.5
0.0587518 0.0131757 0.0025 0.5
0.0587518 0.0131757 -0.0025 0.5
0.0587752 0.0134409 0.00195549 0.5
0.0587752 0.0134409 -0.00195549 0.5
0.0602853 0.0002775 0.0025 0.5
0.0602853 0.0002775 -0.0025 0.5
0.0587752 0.0134409 -0.0025 0.5
0.0587752 0.0134409 0.0025 0.5
0.0587936 0.013875 7.01673e-19 0.5
0.0605631 0.0002775 -9.93434e-23 0.5
0.0588317 0.01443 0.0025 0.5
0.0588317 0.01443 -0.0025 0.5
0.058856 0.0143898 -0.00231895 0.5
0.058856 0.0143898 0.00231895 0.5
0.058856 0.0143898 0.0025 0.5
0.058856 0.0143898 -0.0025 0.5
0.058861 0.0144652 0.00234159 0.5
0.058861 0.0144652 -0.00234159 0.5
0.058861 0.0144652 0.0025 0.5
0.058861 0.0144652 -0.0025 0.5
0.0588963 0.0147382 0.0025 0.5
0.0588963 0.0147382 -0.0025 0.5
0.0589324 0.014985 -7.29509e-20 0.5
0.0608409 0.0002775 0.0025 0.5
0.0608409 0.0002775 -0.0025 0.5
0.058989 0.0154473 -0.00208253 0.5
0.058989 0.0154473 0.00208253 0.5
0.058989 0.0154473 0.0025 0.5
0.058989 0.0154473 -0.0025 0.5
0.0590367 0.0156803 -0.00186794 0.5
0.0590367 0.0156803 0.00186794 0.5
0.0590656 0.01554 0.0025 0.5
0.0590656 0.01554 -0.0025 0.5
0.0590367 0.0156803 0.0025 0.5
0.0590367 0.0156803 -0.0025 0.5
0.0611187 0.000555 -0.0025 0.5
0.0611187 0.000555 0.0025 0.5
0.0590956 0.016095 -1.02485e-19 0.5
0.059138 0.0164086 -0.00141245 0.5
0.059138 0.0164086 0.00141245 0.5
0.059138 0.0164086 -0.0025 0.5
0.059138 0.0164086 0.0025 0.5
0.0613966 0.0002775 -0.0025 0.5
0.0613966 0.0002775 0.0025 0.5
0.0592666 0.01665 0.0025 0.5
0.0592666 0.01665 -0.0025 0.5
0.0616744 0.0002775 0 0.5
0.0592886 0.017042 0.0025 0.5
0.0592886 0.017042 -0.0025 0.5
0.0593244 0.0172435 -1.49917e-21 0.5
0.0593332 0.0173235 0.0025 0.5
0.0593332 0.0173235 -0.0025 0.5
0.0619522 0.0002775 -0.0025 0.5
0.0619522 0.0002775 0.0025 0.5
0.0594474 0.01776 0.0025 0.5
0.0594474 0.01776 -0.0025 0.5
0.06223 0.000555 -0.0025 0.5
0.06223 0.000555 0.0025 0.5
0.0595819 0.0181852 0.0025 0.5
0.0595819 0.0181852 -0.0025 0.5
0.0595991 0.0183269 0 0.5
0.0596175 0.0184804 0.0025 0.5
0.0596175 0.0184804 -0.0025 0.5
0.0625078 0.0002775 0.0025 0.5
0.0625078 0.0002775 -0.0025 0.5
0.0596105 0.01887 0.0025 0.5
0.0596105 0.01887 -0.0025 0.5
0.0597537 0.0191235 0.00135824 0.5
0.0597537 0.0191235 -0.00135824 0.5
0.0627856 0.0002775 3.76374e-21 0.5
0.0597537 0.0191235 0.0025 0.5
0.0597537 0.0191235 -0.0025 0.5
0.0597826 0.019425 5.22181e-21 0.5
0.059814 0.0197867 -0.00162947 0.5
0.059814 0.0197867 0.00162947 0.5
0.059814 0.0197867 0.0025 0.5
0.059814 0.0197867 -0.0025 0.5
0.0597559 0.01998 0.0025 0.5
0.0597559 0.01998 -0.0025 0.5
0.0630634 0.0002775 -0.0025 0.5
0.0630634 0.0002775 0.0025 0.5
0.0598673 0.0201201 0.001869 0.5
0.0598673 0.0201201 -0.001869 0.5
0.0598673 0.0201201 0.0025 0.5
0.0598673 0.0201201 -0.0025 0.5
0.0598979 0.020535 2.76816e-20 0.5
0.0633413 0.000555 -0.0025 0.5
0.0633413 0.000555 0.0025 0.5
0.0598943 0.02109 -0.0025 0.5
0.0598943 0.02109 0.0025 0.5
0.0599354 0.021018 -0.0021755 0.5
0.0599354 0.021018 0.0021755 0.5
0.0599354 0.021018 0.0025 0.5
0.0599354 0.021018 -0.0025 0.5
0.0599495 0.021148 0.00223883 0.5
0.0599495 0.021148 -0.00223883 0.5
0.0599495 0.021148 0.0025 0.5
0.0599495 0.021148 -0.0025 0.5
0.0636191 0.0002775 0.0025 0.5
0.0636191 0.0002775 -0.0025 0.5
0.0599855 0.021645 -1.69943e-19 0.5
0.0600075 0.021632 -0.0025 0.5
0.0600075 0.021632 0.0025 0.5
0.0638969 0.0002775 -5.95927e-22 0.5
0.0600639 0.0221437 -0.00224629 0.5
0.0600639 0.0221437 0.00224629 0.5
0.0600639 0.0221437 0.0025 0.5
0.0600639 0.0221437 -0.0025 0.5
0.0601089 0.0223013 -0.00204375 0.5
0.0601089 0.0223013 0.00204375 0.5
0.0601296 0.0222 0.0025 0.5
0.0601296 0.0222 -0.0025 0.5
0.0601089 0.0223013 0.0025 0.5
0.0601089 0.0223013 -0.0025 0.5
0.0641747 0.0002775 0.0025 0.5
0.0641747 0.0002775 -0.0025 0.5
0.060198 0.022755 -6.6693e-20 0.5
0.0644525 0.000555 -0.0025 0.5
0.0644525 0.000555 0.0025 0.5
0.0602453 0.0230725 0.00143006 0.5
0.0602453 0.0230725 -0.00143006 0.5
0.0602453 0.0230725 -0.0025 0.5
0.0602453 0.0230725 0.0025 0.5
0.0647303 0.0002775 0.0025 0.5
0.0647303 0.0002775 -0.0025 0.5
0.0604019 0.02331 0.0025 0.5
0.0604019 0.02331 -0.0025 0.5
0.0604552 0.0237572 0.0025 0.5
0.0604552 0.0237572 -0.0025 0.5
0.0650081 0.0002775 0 0.5
0.0604813 0.0238843 -5.85244e-19 0.5
0.0604883 0.0239397 0.0025 0.5
0.0604883 0.0239397 -0.0025 0.5
0.0652859 0.0002775 0.0025 0.5
0.0652859 0.0002775 -0.0025 0.5
0.0606122 0.02442 0.0025 0.5
0.0606122 0.02442 -0.0025 0.5
0.0655638 0.000555 -0.0025 0.5
0.0655638 0.000555 0.0025 0.5
0.0607655 0.0247729 0.0025 0.5
0.0607655 0.0247729 -0.0025 0.5
0.0607944 0.0249946 3.83936e-19 0.5
0.0658416 0.0002775 0.0025 0.5
0.0658416 0.0002775 -0.0025 0.5
0.0608245 0.0252361 0.0025 0.5
0.0608245 0.0252361 -0.0025 0.5
0.060792 0.02553 0.0025 0.5
0.060792 0.02553 -0.0025 0.5
0.0661194 0.0002775 -1.81913e-21 0.5
0.060928 0.0257205 0.00164193 0.5
0.060928 0.0257205 -0.00164193 0.5
0.060928 0.0257205 0.0025 0.5
0.060928 0.0257205 -0.0025 0.5
0.0609632 0.026085 -1.41925e-19 0.5
0.0663972 0.0002775 0.0025 0.5
0.0663972 0.0002775 -0.0025 0.5
0.0609969 0.0265183 -0.00195184 0.5
0.0609969 0.0265183 0.00195184 0.5
0.0609432 0.02664 0.0025 0.5
0.0609432 0.02664 -0.0025 0.5
0.0609969 0.0265183 0.0025 0.5
0.0609969 0.0265183 -0.0025 0.5
0.0610276 0.026731 0.00208989 0.5
0.0610276 0.026731 -0.00208989 0.5
0.0610276 0.026731 0.0025 0.5
0.0610276 0.026731 -0.0025 0.5
0.066675 0.000555 -0.0025 0.5
0.066675 0.000555 0.0025 0.5
0.0610588 0.027195 1.45157e-18 0.5
0.0669528 0.0002775 0.0025 0.5
0.0669528 0.0002775 -0.0025 0.5
0.0610856 0.02775 -0.0025 0.5
0.0610856 0.02775 0.0025 0.5
0.0610995 0.0277308 -0.00241335 0.5
0.0610995 0.0277308 0.00241335 0.5
0.0610995 0.0277308 0.0025 0.5
0.0610995 0.0277308 -0.0025 0.5
0.0611025 0.0277662 0.00242696 0.5
0.0611025 0.0277662 -0.00242696 0.5
0.0611025 0.0277662 0.0025 0.5
0.0611025 0.0277662 -0.0025 0.5
0.0672306 0.0002775 9.10876e-20 0.5
0.0611188 0.0279135 -0.0025 0.5
0.0611188 0.0279135 0.0025 0.5
0.0611426 0.028305 -2.60713e-18 0.5
0.0675084 0.0002775 0.0025 0.5
0.0675084 0.0002775 -0.0025 0.5
0.0612074 0.0287714 -0.00210101 0.5
0.0612074 0.0287714 0.00210101 0.5
0.0612074 0.0287714 -0.0025 0.5
0.0612074 0.0287714 0.0025 0.5
0.0613066 0.02886 -0.0025 0.5
0.0613066 0.02886 0.0025 0.5
0.06128 0.0290211 -0.00177444 0.5
0.06128 0.0290211 0.00177444 0.5
0.0677863 0.000555 -0.0025 0.5
0.0677863 0.000555 0.0025 0.5
0.06128 0.0290211 0.0025 0.5
0.06128 0.0290211 -0.0025 0.5
0.0613516 0.029415 1.01582e-18 0.5
0.0680641 0.0002775 0.0025 0.5
0.0680641 0.0002775 -0.0025 0.5
0.0613899 0.0296992 -0.00127998 0.5
0.0613899 0.0296992 0.00127998 0.5
0.0613899 0.0296992 0.0025 0.5
0.0613899 0.0296992 -0.0025 0.5
0.0683419 0.0002775 1.14121e-19 0.5
0.0615524 0.02997 0.0025 0.5
0.0615524 0.02997 -0.0025 0.5
0.0686197 0.0002775 0.0025 0.5
0.0686197 0.0002775 -0.0025 0.5
0.0616444 0.0305323 1.22363e-20 0.5
0.0616353 0.0304859 0.0025 0.5
0.0616353 0.0304859 -0.0025 0.5
0.0616469 0.0305525 0.0025 0.5
0.0616469 0.0305525 -0.0025 0.5
0.0688975 0.000555 -0.0025 0.5
0.0688975 0.000555 0.0025 0.5
0.0617488 0.03108 -0.0025 0.5
0.0617488 0.03108 0.0025 0.5
0.0691753 0.0002775 0.0025 0.5
0.0691753 0.0002775 -0.0025 0.5
0.0694531 0.0002775 9.36031e-20 0.5
0.0619101 0.0314843 7.75607e-21 0.5
0.0619006 0.031409 0.0025 0.5
0.0619006 0.031409 -0.0025 0.5
0.0619691 0.0319294 -0.00132628 0.5
0.0619691 0.0319294 0.00132628 0.5
0.0619691 0.0319294 0.0025 0.5
0.0619691 0.0319294 -0.0025 0.5
0.0697309 0.0002775 0.0025 0.5
0.0697309 0.0002775 -0.0025 0.5
0.0619375 0.03219 0.0025 0.5
0.0619375 0.03219 -0.0025 0.5
0.0620698 0.0323501 0.00177899 0.5
0.0620698 0.0323501 -0.00177899 0.5
0.0620698 0.0323501 0.0025 0.5
0.0620698 0.0323501 -0.0025 0.5
0.0700088 0.000555 -0.0025 0.5
0.0700088 0.000555 0.0025 0.5
0.0621119 0.032745 -3.97019e-20 0.5
0.0702866 0.0002775 0.0025 0.5
0.0702866 0.0002775 -0.0025 0.5
0.0621412 0.0332113 -0.00210042 0.5
0.0621412 0.0332113 0.00210042 0.5
0.0620927 0.0333 0.0025 0.5
0.0620927 0.0333 -0.0025 0.5
0.0621412 0.0332113 0.0025 0.5
0.0621412 0.0332113 -0.0025 0.5
0.0705644 0.0002775 2.66209e-19 0.5
0.0621599 0.03337 0.00218471 0.5
0.0621599 0.03337 -0.00218471 0.5
0.0621599 0.03337 0.0025 0.5
0.0621599 0.03337 -0.0025 0.5
0.062187 0.033855 3.84867e-21 0.5
0.0708422 0.0002775 0.0025 0.5
0.0708422 0.0002775 -0.0025 0.5
0.0621747 0.03441 0.0025 0.5
0.0621747 0.03441 -0.0025 0.5
0.0621995 0.0343795 -0.00236273 0.5
0.0621995 0.0343795 0.00236273 0.5
0.0621995 0.0343795 0.0025 0.5
0.0621995 0.0343795 -0.0025 0.5
0.0622022 0.0344378 0.00237496 0.5
0.0622022 0.0344378 -0.00237496 0.5
0.0622022 0.0344378 0.0025 0.5
0.0622022 0.0344378 -0.0025 0.5
0.07112 0.000555 -0.0025 0.5
0.07112 0.000555 0.0025 0.5
0.0622142 0.034965 4.84436e-20 0.5
0.0713978 0.0002775 0.0025 0.5
0.0713978 0.0002775 -0.0025 0.5
0.06223 0.0351272 -0.0025 0.5
0.06223 0.0351272 0.0025 0.5
0.0716756 0.0002775 9.36031e-20 0.5
0.0622447 0.0355053 -0.00243368 0.5
0.0622447 0.0355053 0.00243368 0.5
0.0622447 0.0355053 0.0025 0.5
0.0622447 0.0355053 -0.0025 0.5
0.0622475 0.0355375 -0.00242107 0.5
0.0622475 0.0355375 0.00242107 0.5
0.0622475 0.0355375 0.0025 0.5
0.0622475 0.0355375 -0.0025 0.5
0.0622607 0.03552 0.0025 0.5
0.0622607 0.03552 -0.0025 0.5
0.0622797 0.036075 5.08445e-20 0.5
0.0719534 0.0002775 0.0025 0.5
0.0719534 0.0002775 -0.0025 0.5
0.0623231 0.036537 0.00208117 0.5
0.0623231 0.036537 -0.00208117 0.5
0.0722313 0.000555 -0.0025 0.5
0.0722313 0.000555 0.0025 0.5
0.0623231 0.036537 0.0025 0.5
0.0623231 0.036537 -0.0025 0.5
0.0624169 0.03663 0.0025 0.5
0.0624169 0.03663 -0.0025 0.5
0.0623717 0.0367715 -0.00186243 0.5
0.0623717 0.0367715 0.00186243 0.5
0.0623717 0.0367715 0.0025 0.5
0.0623717 0.0367715 -0.0025 0.5
0.0725091 0.0002775 0.0025 0.5
0.0725091 0.0002775 -0.0025 0.5
0.0624195 0.037185 7.8134e-19 0.5
0.0727869 0.0002775 1.145e-19 0.5
0.062448 0.0375222 -0.00151901 0.5
0.062448 0.0375222 0.00151901 0.5
0.062448 0.0375222 0.0025 0.5
0.062448 0.0375222 -0.0025 0.5
0.0730647 0.0002775 0.0025 0.5
0.0730647 0.0002775 -0.0025 0.5
0.0625826 0.03774 -0.0025 0.5
0.0625826 0.03774 0.0025 0.5
0.0625467 0.0380564 -0.0025 0.5
0.0625467 0.0380564 0.0025 0.5
0.0625682 0.0382817 -9.40239e-19 0.5
0.0733425 0.000555 -0.0025 0.5
0.0733425 0.000555 0.0025 0.5
0.0625868 0.0384936 0.0025 0.5
0.0625868 0.0384936 -0.0025 0.5
0.0736203 0.0002775 0.0025 0.5
0.0736203 0.0002775 -0.0025 0.5
0.0627072 0.03885 0.0025 0.5
0.0627072 0.03885 -0.0025 0.5
0.0738981 0.0002775 1.12679e-19 0.5
0.0627352 0.0393547 0.0025 0.5
0.0627352 0.0393547 -0.0025 0.5
0.062743 0.039429 1.85858e-20 0.5
0.0627431 0.0394474 0.0025 0.5
0.0627431 0.0394474 -0.0025 0.5
0.0741759 0.0002775 0.0025 0.5
0.0741759 0.0002775 -0.0025 0.5
0.0628049 0.03996 0.0025 0.5
0.0628049 0.03996 -0.0025 0.5
0.0744538 0.000555 -0.0025 0.5
0.0744538 0.000555 0.0025 0.5
0.0747316 0.0002775 0.0025 0.5
0.0747316 0.0002775 -0.0025 0.5
0.0628904 0.0404103 0.0025 0.5
0.0628904 0.0404103 -0.0025 0.5
0.0628975 0.0405196 5.05918e-22 0.5
0.0629042 0.0406334 0.0025 0.5
0.0629042 0.0406334 -0.0025 0.5
0.0750094 0.0002775 1.14375e-19 0.5
0.0628815 0.04107 0.0025 0.5
0.0628815 0.04107 -0.0025 0.5
0.0752872 0.0002775 0.0025 0.5
0.0752872 0.0002775 -0.0025 0.5
0.0629857 0.0414252 0.0025 0.5
0.0629857 0.0414252 -0.0025 0.5
0.0629949 0.0416309 0 0.5
0.075565 0.000555 -0.0025 0.5
0.075565 0.000555 0.0025 0.5
0.0630035 0.0418426 0.0025 0.5
0.0630035 0.0418426 -0.0025 0.5
0.0629402 0.04218 0.0025 0.5
0.0629402 0.04218 -0.0025 0.5
0.0758428 0.0002775 0.0025 0.5
0.0758428 0.0002775 -0.0025 0.5
0.0630483 0.0424726 0.0025 0.5
0.0630483 0.0424726 -0.0025 0.5
0.0630513 0.0425601 0 0.5
0.0761206 0.0002775 1.14623e-19 0.5
0.0630642 0.0430133 -0.00125356 0.5
0.0630642 0.0430133 0.00125356 0.5
0.0630642 0.0430133 0.0025 0.5
0.0630642 0.0430133 -0.0025 0.5
0.0763984 0.0002775 0.0025 0.5
0.0763984 0.0002775 -0.0025 0.5
0.0629837 0.04329 0.0025 0.5
0.0629837 0.04329 -0.0025 0.5
0.0630898 0.0435412 0.00136851 0.5
0.0630898 0.0435412 -0.00136851 0.5
0.0630898 0.0435412 0.0025 0.5
0.0630898 0.0435412 -0.0025 0.5
0.0766763 0.000555 -0.0025 0.5
0.0766763 0.000555 0.0025 0.5
0.063097 0.043845 4.33584e-21 0.5
0.0769541 0.0002775 0.0025 0.5
0.0769541 0.0002775 -0.0025 0.5
0.063102 0.044161 -0.00142335 0.5
0.063102 0.044161 0.00142335 0.5
0.063102 0.044161 0.0025 0.5
0.063102 0.044161 -0.0025 0.5
0.0630141 0.0444 0.0025 0.5
0.0630141 0.0444 -0.0025 0.5
0.0772319 0.0002775 1.08196e-19 0.5
0.0631164 0.0446246 0.00148849 0.5
0.0631164 0.0446246 -0.00148849 0.5
0.0631164 0.0446246 0.0025 0.5
0.0631164 0.0446246 -0.0025 0.5
0.0631215 0.044955 -1.50174e-20 0.5
0.0775097 0.0002775 0.0025 0.5
0.0775097 0.0002775 -0.0025 0.5
0.0631244 0.0452934 -0.00152433 0.5
0.0631244 0.0452934 0.00152433 0.5
0.0631244 0.0452934 0.0025 0.5
0.0631244 0.0452934 -0.0025 0.5
0.0630331 0.04551 0.0025 0.5
0.0630331 0.04551 -0.0025 0.5
0.0777875 0.000555 -0.0025 0.5
0.0777875 0.000555 0.0025 0.5
0.0631316 0.0457194 -0.00155675 0.5
0.0631316 0.0457194 0.00155675 0.5
0.0631316 0.0457194 -0.0025 0.5
0.0631316 0.0457194 0.0025 0.5
0.0780653 0.0002775 0.0025 0.5
0.0780653 0.0002775 -0.0025 0.5
0.0631345 0.046065 -7.88399e-19 0.5
0.0783431 0.0002775 8.26565e-20 0.5
0.0631361 0.0464151 -0.00157683 0.5
0.0631361 0.0464151 0.00157683 0.5
0.0631361 0.0464151 -0.0025 0.5
0.0631361 0.0464151 0.0025 0.5
0.0630435 0.04662 0.0025 0.5
0.0630435 0.04662 -0.0025 0.5
0.0631397 0.0468213 0.00159309 0.5
0.0631397 0.0468213 -0.00159309 0.5
0.0631397 0.0468213 0.0025 0.5
0.0631397 0.0468213 -0.0025 0.5
0.0786209 0.0002775 0.0025 0.5
0.0786209 0.0002775 -0.0025 0.5
0.0631413 0.047175 8.03639e-19 0.5
0.0788988 0.000555 -0.0025 0.5
0.0788988 0.000555 0.0025 0.5
0.0631416 0.0475305 -0.00160147 0.5
0.0631416 0.0475305 0.00160147 0.5
0.0631416 0.0475305 0.0025 0.5
0.0631416 0.0475305 -0.0025 0.5
0.0630478 0.04773 0.0025 0.5
0.0630478 0.04773 -0.0025 0.5
0.0791766 0.0002775 0.0025 0.5
0.0791766 0.0002775 -0.0025 0.5
0.0631422 0.0479288 0.00160445 0.5
0.0631422 0.0479288 -0.00160445 0.5
0.0631422 0.0479288 0.0025 0.5
0.0631422 0.0479288 -0.0025 0.5
0.0794544 0.0002775 9.54222e-20 0.5
0.0631425 0.048285 -3.98139e-18 0.5
0.063141 0.0486399 0.00159882 0.5
0.063141 0.0486399 -0.00159882 0.5
0.063141 0.0486399 0.0025 0.5
0.063141 0.0486399 -0.0025 0.5
0.0797322 0.0002775 0.0025 0.5
0.0797322 0.0002775 -0.0025 0.5
0.0630449 0.04884 0.0025 0.5
0.0630449 0.04884 -0.0025 0.5
0.0631374 0.0490436 0.00158291 0.5
0.0631374 0.0490436 -0.00158291 0.5
0.0631374 0.0490436 0.0025 0.5
0.0631374 0.0490436 -0.0025 0.5
0.08001 0.000555 -0.0025 0.5
0.08001 0.000555 0.0025 0.5
0.0631359 0.049395 3.77063e-18 0.5
0.0802878 0.0002775 0.0025 0.5
0.0802878 0.0002775 -0.0025 0.5
0.0631321 0.0497411 0.00155891 0.5
0.0631321 0.0497411 -0.00155891 0.5
0.0631321 0.0497411 -0.0025 0.5
0.0631321 0.0497411 0.0025 0.5
0.0630325 0.04995 0.0025 0.5
0.0630325 0.04995 -0.0025 0.5
0.0805656 0.0002775 1.15842e-19 0.5
0.0631226 0.0501684 0.00151635 0.5
0.0631226 0.0501684 -0.00151635 0.5
0.0631226 0.0501684 0.0025 0.5
0.0631226 0.0501684 -0.0025 0.5
0.0631189 0.050505 2.51037e-18 0.5
0.0808434 0.0002775 0.0025 0.5
0.0808434 0.0002775 -0.0025 0.5
0.0631132 0.0508322 -0.00147384 0.5
0.0631132 0.0508322 0.00147384 0.5
0.0631132 0.0508322 -0.0025 0.5
0.0631132 0.0508322 0.0025 0.5
0.0630099 0.05106 0.0025 0.5
0.0630099 0.05106 -0.0025 0.5
0.0811213 0.000555 -0.0025 0.5
0.0811213 0.000555 0.0025 0.5
0.0630965 0.0513045 0.00139875 0.5
0.0630965 0.0513045 -0.00139875 0.5
0.0630965 0.0513045 0.0025 0.5
0.0630965 0.0513045 -0.0025 0.5
0.0813991 0.0002775 0.0025 0.5
0.0813991 0.0002775 -0.0025 0.5
0.0630909 0.051615 -4.13894e-18 0.5
0.0816769 0.0002775 9.5745e-20 0.5
0.0630835 0.0519125 0.00134017 0.5
0.0630835 0.0519125 -0.00134017 0.5
0.0630835 0.0519125 0.0025 0.5
0.0630835 0.0519125 -0.0025 0.5
0.062977 0.05217 0.0025 0.5
0.062977 0.05217 -0.0025 0.5
0.0819547 0.0002775 0.0025 0.5
0.0819547 0.0002775 -0.0025 0.5
0.0630557 0.0524553 0.0025 0.5
0.0630557 0.0524553 -0.0025 0.5
0.0630481 0.0527198 8.7191e-19 0.5
0.0822325 0.000555 -0.0025 0.5
0.0822325 0.000555 0.0025 0.5
0.06304 0.0529791 -0.0025 0.5
0.06304 0.0529791 0.0025 0.5
0.0629333 0.05328 0.0025 0.5
0.0629333 0.05328 -0.0025 0.5
0.0825103 0.0002775 0.0025 0.5
0.0825103 0.0002775 -0.0025 0.5
0.0629949 0.053626 0.0025 0.5
0.0629949 0.053626 -0.0025 0.5
0.0827881 0.0002775 8.32524e-20 0.5
0.062987 0.0538297 -8.52626e-19 0.5
0.0629789 0.054028 0.0025 0.5
0.0629789 0.054028 -0.0025 0.5
0.0830659 0.0002775 0.0025 0.5
0.0830659 0.0002775 -0.0025 0.5
0.0628791 0.05439 0.0025 0.5
0.0628791 0.05439 -0.0025 0.5
0.0833437 0.000555 -0.0025 0.5
0.0833437 0.000555 0.0025 0.5
0.0629058 0.054825 0.0025 0.5
0.0629058 0.054825 -0.0025 0.5
0.0628999 0.0549411 8.7682e-19 0.5
0.062894 0.0550533 -0.0025 0.5
0.062894 0.0550533 0.0025 0.5
0.0836216 0.0002775 0.0025 0.5
0.0836216 0.0002775 -0.0025 0.5
0.0628152 0.0555 0.0025 0.5
0.0628152 0.0555 -0.0025 0.5
0.0838994 0.0002775 3.228e-22 0.5
0.0627772 0.0560492 -1.5165e-18 0.5
0.0627771 0.0560465 -0.0025 0.5
0.0627771 0.0560465 0.0025 0.5
0.062776 0.0560646 -0.0025 0.5
0.062776 0.0560646 0.0025 0.5
0.0841772 0.0002775 0.0025 0.5
0.0841772 0.0002775 -0.0025 0.5
0.084455 0.000555 -0.0025 0.5
0.084455 0.000555 0.0025 0.5
0.0627445 0.05661 0.0025 0.5
0.0627445 0.05661 -0.0025 0.5
0.0626567 0.0570362 0.0025 0.5
0.0626567 0.0570362 -0.0025 0.5
0.0847328 0.0002775 0.0025 0.5
0.0847328 0.0002775 -0.0025 0.5
0.0626488 0.0571703 9.94322e-19 0.5
0.0626407 0.0573098 0.0025 0.5
0.0626407 0.0573098 -0.0025 0.5
0.0850106 0.0002775 0 0.5
0.0626705 0.05772 -0.0025 0.5
0.0626705 0.05772 0.0025 0.5
0.0852884 0.0002775 0.0025 0.5
0.0852884 0.0002775 -0.0025 0.5
0.0625584 0.058048 0.0025 0.5
0.0625584 0.058048 -0.0025 0.5
0.0625461 0.0582833 -9.80635e-19 0.5
0.0855663 0.000555 -0.0025 0.5
0.0855663 0.000555 0.0025 0.5
0.0625335 0.0585268 0.0025 0.5
0.0625335 0.0585268 -0.0025 0.5
0.0858441 0.0002775 0.0025 0.5
0.0858441 0.0002775 -0.0025 0.5
0.062597 0.05883 0.0025 0.5
0.062597 0.05883 -0.0025 0.5
0.0624797 0.0590794 -0.00137648 0.5
0.0624797 0.0590794 0.00137648 0.5
0.0624797 0.0590794 -0.0025 0.5
0.0624797 0.0590794 0.0025 0.5
0.0861219 0.0002775 0 0.5
0.0624655 0.059385 5.25933e-19 0.5
0.0624514 0.0597188 -0.00150377 0.5
0.0624514 0.0597188 0.00150377 0.5
0.0863997 0.0002775 0.0025 0.5
0.0863997 0.0002775 -0.0025 0.5
0.0624514 0.0597188 0.0025 0.5
0.0624514 0.0597188 -0.0025 0.5
0.0625279 0.05994 0.0025 0.5
0.0625279 0.05994 -0.0025 0.5
0.0624182 0.060128 -0.00165301 0.5
0.0624182 0.060128 0.00165301 0.5
0.0624182 0.060128 0.0025 0.5
0.0624182 0.060128 -0.0025 0.5
0.0866775 0.000555 -0.0025 0.5
0.0866775 0.000555 0.0025 0.5
0.062404 0.060495 -9.51295e-19 0.5
0.0869553 0.0002775 0.0025 0.5
0.0869553 0.0002775 -0.0025 0.5
0.0623907 0.0608895 -0.00177712 0.5
0.0623907 0.0608895 0.00177712 0.5
0.0623907 0.0608895 -0.0025 0.5
0.0623907 0.0608895 0.0025 0.5
0.0872331 0.0002775 0 0.5
0.0624665 0.06105 0.0025 0.5
0.0624665 0.06105 -0.0025 0.5
0.062371 0.0611909 0.00186549 0.5
0.062371 0.0611909 -0.00186549 0.5
0.062371 0.0611909 0.0025 0.5
0.062371 0.0611909 -0.0025 0.5
0.0875109 0.0002775 0.0025 0.5
0.0875109 0.0002775 -0.0025 0.5
0.062358 0.061605 7.43321e-19 0.5
0.0877888 0.000555 -0.0025 0.5
0.0877888 0.000555 0.0025 0.5
0.0623466 0.0620436 -0.00197554 0.5
0.0623466 0.0620436 0.00197554 0.5
0.0623466 0.0620436 -0.0025 0.5
0.0623466 0.0620436 0.0025 0.5
0.0880666 0.0002775 -0.00125 0.5
0.0880666 0.0002775 0.00125 0.5
0.0880666 0.0002775 0.0025 0.5
0.0880666 0.0002775 -0.0025 0.5
0.0624146 0.06216 0.0025 0.5
0.0624146 0.06216 -0.0025 0.5
0.0623353 0.0622652 -0.00202602 0.5
0.0623353 0.0622652 0.00202602 0.5
0.0623353 0.0622652 0.0025 0.5
0.0623353 0.0622652 -0.0025 0.5
0.0883444 0.0002775 0 0.5
0.0883444 0.00111 0.0025 0.5
0.0883444 0.00111 -0.0025 0.5
0.0883444 0.00222 0.0025 0.5
0.0883444 0.00222 -0.0025 0.5
0.0623242 0.062715 1.03546e-19 0.5
0.0883444 0.00333 0.0025 0.5
0.0883444 0.00333 -0.0025 0.5
0.0883444 0.00444 0.0025 0.5
0.0883444 0.00444 -0.0025 0.5
0.0883444 0.00555 0.0025 0.5
0.0883444 0.00555 -0.0025 0.5
0.0886222 0.000555 0 0.5
0.0883444 0.00666 0.0025 0.5
0.0883444 0.00666 -0.0025 0.5
0.0886222 0.0002775 -0.00125 0.5
0.0886222 0.0002775 0.00125 0.5
0.0886222 0.0008325 0.00125 0.5
0.0886222 0.0008325 -0.00125 0.5
0.0886222 0.001665 0 0.5
0.0886222 0.0002775 0.0025 0.5
0.0886222 0.0002775 -0.0025 0.5
0.0886222 0.0008325 0.0025 0.5
0.0886222 0.0008325 -0.0025 0.5
0.0886222 0.002775 0 0.5
0.0886222 0.0013875 0.0025 0.5
0.0886222 0.0013875 -0.0025 0.5
0.0886222 0.0019425 0.0025 0.5
0.0886222 0.0019425 -0.0025 0.5
0.0886222 0.0024975 0.0025 0.5
0.0886222 0.0024975 -0.0025 0.5
0.0886222 0.003885 0 0.5
0.0886222 0.0030525 0.0025 0.5
0.0886222 0.0030525 -0.0025 0.5
0.0883444 0.00777 0.0025 0.5
0.0883444 0.00777 -0.0025 0.5
0.0886222 0.0036075 0.0025 0.5
0.0886222 0.0036075 -0.0025 0.5
0.0886222 0.0041625 0.0025 0.5
0.0886222 0.0041625 -0.0025 0.5
0.0886222 0.004995 -1.81603e-19 0.5
0.0623151 0.063185 -0.00211728 0.5
0.0623151 0.063185 0.00211728 0.5
0.0623151 0.063185 -0.0025 0.5
0.0623151 0.063185 0.0025 0.5
0.0886222 0.0047175 0.0025 0.5
0.0886222 0.0047175 -0.0025 0.5
0.0886222 0.0052725 0.0025 0.5
0.0886222 0.0052725 -0.0025 0.5
0.0883444 0.00888 0.0025 0.5
0.0883444 0.00888 -0.0025 0.5
0.0886222 0.006105 -4.31797e-21 0.5
0.0886222 0.0058275 0.0025 0.5
0.0886222 0.0058275 -0.0025 0.5
0.0623726 0.06327 0.0025 0.5
0.0623726 0.06327 -0.0025 0.5
0.0623088 0.0633487 -0.00214549 0.5
0.0623088 0.0633487 0.00214549 0.5
0.0886222 0.0063825 0.0025 0.5
0.0886222 0.0063825 -0.0025 0.5
0.0623088 0.0633487 0.0025 0.5
0.0623088 0.0633487 -0.0025 0.5
0.0886222 0.007215 3.76366e-21 0.5
0.0886222 0.0069375 -0.0025 0.5
0.0886222 0.0069375 0.0025 0.5
0.0883444 0.00999 0.0025 0.5
0.0883444 0.00999 -0.0025 0.5
0.0886222 0.0074925 -0.0025 0.5
0.0886222 0.0074925 0.0025 0.5
0.0886222 0.008325 1.10296e-21 0.5
0.0886222 0.0080475 -0.0025 0.5
0.0886222 0.0080475 0.0025 0.5
0.0886222 0.0086025 -0.0025 0.5
0.0886222 0.0086025 0.0025 0.5
0.0883444 0.0111 0.0025 0.5
0.0883444 0.0111 -0.0025 0.5
0.0886222 0.009435 1.92878e-21 0.5
0.0886222 0.0091575 0.0025 0.5
0.0886222 0.0091575 -0.0025 0.5
0.0886222 0.0097125 0.0025 0.5
0.0886222 0.0097125 -0.0025 0.5
0.0622998 0.063825 -2.79635e-20 0.5
0.0883444 0.01221 0.0025 0.5
0.0883444 0.01221 -0.0025 0.5
0.0886222 0.010545 3.88923e-21 0.5
0.0886222 0.0102675 0.0025 0.5
0.0886222 0.0102675 -0.0025 0.5
0.0886222 0.0108225 0.0025 0.5
0.0886222 0.0108225 -0.0025 0.5
0.0883444 0.01332 0.0025 0.5
0.0883444 0.01332 -0.0025 0.5
0.0886222 0.0113775 0.0025 0.5
0.0886222 0.0113775 -0.0025 0.5
0.0886222 0.011655 2.78619e-21 0.5
0.0886222 0.0119325 0.0025 0.5
0.0886222 0.0119325 -0.0025 0.5
0.0886222 0.0124875 -0.0025 0.5
0.0886222 0.0124875 0.0025 0.5
0.0886222 0.012765 1.81655e-19 0.5
0.0883444 0.01443 0.0025 0.5
0.0883444 0.01443 -0.0025 0.5
0.0622915 0.0643186 -0.00222348 0.5
0.0622915 0.0643186 0.00222348 0.5
0.0622915 0.0643186 0.0025 0.5
0.0622915 0.0643186 -0.0025 0.5
0.0886222 0.0130425 -0.0025 0.5
0.0886222 0.0130425 0.0025 0.5
0.0622875 0.0644374 -0.00224133 0.5
0.0622875 0.0644374 0.00224133 0.5
0.0623373 0.06438 0.0025 0.5
0.0623373 0.06438 -0.0025 0.5
0.0622875 0.0644374 0.0025 0.5
0.0622875 0.0644374 -0.0025 0.5
0.0886222 0.0135975 0.0025 0.5
0.0886222 0.0135975 -0.0025 0.5
0.0886222 0.013875 0 0.5
0.0883444 0.01554 0.0025 0.5
0.0883444 0.01554 -0.0025 0.5
0.0886222 0.0141525 0.0025 0.5
0.0886222 0.0141525 -0.0025 0.5
0.0886222 0.0147075 -0.0025 0.5
0.0886222 0.0147075 0.0025 0.5
0.0886222 0.014985 7.52748e-21 0.5
0.0883444 0.01665 0.0025 0.5
0.0883444 0.01665 -0.0025 0.5
0.0886222 0.0152625 -0.0025 0.5
0.0886222 0.0152625 0.0025 0.5
0.0622793 0.064935 -8.12553e-21 0.5
0.0886222 0.0158175 0.0025 0.5
0.0886222 0.0158175 -0.0025 0.5
0.0886222 0.016095 0 0.5
0.0883444 0.01776 0.0025 0.5
0.0883444 0.01776 -0.0025 0.5
0.0886222 0.0163725 0.0025 0.5
0.0886222 0.0163725 -0.0025 0.5
0.0886222 0.0169275 0.0025 0.5
0.0886222 0.0169275 -0.0025 0.5
0.0886222 0.017205 0 0.5
0.062312 0.0654081 -0.00213114 0.5
0.062312 0.0654081 0.00213114 0.5
0.0886222 0.0174825 0.0025 0.5
0.0886222 0.0174825 -0.0025 0.5
0.0883444 0.01887 0.0025 0.5
0.0883444 0.01887 -0.0025 0.5
0.062312 0.0654081 0.0025 0.5
0.062312 0.0654081 -0.0025 0.5
0.0886222 0.0180375 0.0025 0.5
0.0886222 0.0180375 -0.0025 0.5
0.062391 0.06549 0.0025 0.5
0.062391 0.06549 -0.0025 0.5
0.0886222 0.018315 -4.24739e-19 0.5
0.0623405 0.0656004 -0.00200286 0.5
0.0623405 0.0656004 0.00200286 0.5
0.0623405 0.0656004 0.0025 0.5
0.0623405 0.0656004 -0.0025 0.5
0.0886222 0.0185925 0.0025 0.5
0.0886222 0.0185925 -0.0025 0.5
0.0883444 0.01998 0.0025 0.5
0.0883444 0.01998 -0.0025 0.5
0.0886222 0.0191475 0.0025 0.5
0.0886222 0.0191475 -0.0025 0.5
0.0886222 0.019425 2.54579e-19 0.5
0.0886222 0.0197025 0.0025 0.5
0.0886222 0.0197025 -0.0025 0.5
0.0883444 0.02109 0.0025 0.5
0.0883444 0.02109 -0.0025 0.5
0.0886222 0.0202575 0.0025 0.5
0.0886222 0.0202575 -0.0025 0.5
0.0886222 0.020535 -4.2863e-21 0.5
0.0886222 0.0208125 0.0025 0.5
0.0886222 0.0208125 -0.0025 0.5
0.0883444 0.0222 0.0025 0.5
0.0883444 0.0222 -0.0025 0.5
0.0625809 0.0662495 0.0025 0.5
0.0625809 0.0662495 -0.0025 0.5
0.0886222 0.0213675 0.0025 0.5
0.0886222 0.0213675 -0.0025 0.5
0.062731 0.0662359 -6.56075e-21 0.5
0.0886222 0.021645 -2.44648e-21 0.5
0.0886222 0.0219225 0.0025 0.5
0.0886222 0.0219225 -0.0025 0.5
0.0883444 0.02331 0.0025 0.5
0.0883444 0.02331 -0.0025 0.5
0.0629904 0.0662495 0.0025 0.5
0.0629904 0.0662495 -0.0025 0.5
0.0886222 0.0224775 0.0025 0.5
0.0886222 0.0224775 -0.0025 0.5
0.0886222 0.022755 -2.49561e-19 0.5
0.0633413 0.0660017 -0.0025 0.5
0.0633413 0.0660017 0.0025 0.5
0.0886222 0.0230325 0.0025 0.5
0.0886222 0.0230325 -0.0025 0.5
0.0883444 0.02442 0.0025 0.5
0.0883444 0.02442 -0.0025 0.5
0.0886222 0.0235875 0.0025 0.5
0.0886222 0.0235875 -0.0025 0.5
0.0886222 0.023865 4.33092e-19 0.5
0.0886222 0.0241425 0.0025 0.5
0.0886222 0.0241425 -0.0025 0.5
0.0636191 0.0663225 0.0025 0.5
0.0636191 0.0663225 -0.0025 0.5
0.0883444 0.02553 0.0025 0.5
0.0883444 0.02553 -0.0025 0.5
0.0886222 0.0246975 -0.0025 0.5
0.0886222 0.0246975 0.0025 0.5
0.0886222 0.024975 1.19177e-21 0.5
0.0638969 0.0663225 0 0.5