# f_l  POINT_DATA 1962
#  x  y  z  f_l
0.000375 0.000375 0 0.5
0.0015 0.00025 5.72608e-20 0.5
0.00025 0.0015 0 0.5
0.0025 0.00025 -1.6386e-20 0.5
0.00025 0.0025 1.89735e-19 0.5
0.00025 0.00025 0.0025 0.5
0.00025 0.00025 -0.0025 0.5
0.00075 0.00025 0.0025 0.5
0.00025 0.00075 0.0025 0.5
0.00025 0.00075 -0.0025 0.5
0.00075 0.00025 -0.0025 0.5
0.001 0.0005 -0.0025 0.5
0.001 0.0005 0.0025 0.5
0.0005 0.001 0.0025 0.5
0.0005 0.001 -0.0025 0.5
0.00125 0.00025 0.0025 0.5
0.00025 0.00125 -0.0025 0.5
0.00125 0.00025 -0.0025 0.5
0.00025 0.00125 0.0025 0.5
0.00175 0.00025 0.0025 0.5
0.00025 0.00175 -0.0025 0.5
0.00175 0.00025 -0.0025 0.5
0.00025 0.00175 0.0025 0.5
0.002 0.0005 -0.0025 0.5
0.002 0.0005 0.0025 0.5
0.0005 0.002 0.0025 0.5
0.0005 0.002 -0.0025 0.5
0.00025 0.00225 0.0025 0.5
0.00025 0.00225 -0.0025 0.5
0.00225 0.00025 0.0025 0.5
0.00225 0.00025 -0.0025 0.5
0.0035 0.00025 -1.38704e-19 0.5
0.00025 0.0035 -1.89735e-19 0.5
0.00025 0.00275 0.0025 0.5
0.00025 0.00275 -0.0025 0.5
0.00275 0.00025 0.0025 0.5
0.00275 0.00025 -0.0025 0.5
0.0005 0.003 -0.0025 0.5
0.003 0.0005 -0.0025 0.5
0.003 0.0005 0.0025 0.5
0.0005 0.003 0.0025 0.5
0.00025 0.00325 0.0025 0.5
0.00325 0.00025 0.0025 0.5
0.00025 0.00325 -0.0025 0.5
0.00325 0.00025 -0.0025 0.5
0.0045 0.00025 -5.72243e-20 0.5
0.00025 0.0045 0 0.5
0.00025 0.00375 0.0025 0.5
0.00375 0.00025 0.0025 0.5
0.00025 0.00375 -0.0025 0.5
0.00375 0.00025 -0.0025 0.5
0.004 0.0005 -0.0025 0.5
0.004 0.0005 0.0025 0.5
0.0005 0.004 0.0025 0.5
0.0005 0.004 -0.0025 0.5
0.00025 0.00425 0.0025 0.5
0.00425 0.00025 0.0025 0.5
0.00025 0.00425 -0.0025 0.5
0.00425 0.00025 -0.0025 0.5
0.00475 0.00025 0.0025 0.5
0.00475 0.00025 -0.0025 0.5
0.00025 0.00475 0.0025 0.5
0.00025 0.00475 -0.0025 0.5
0.00025 0.0055 0 0.5
0.0055 0.00025 -2.36936e-21 0.5
0.005 0.0005 -0.0025 0.5
0.005 0.0005 0.0025 0.5
0.0005 0.005 0.0025 0.5
0.0005 0.005 -0.0025 0.5
0.00025 0.00525 -0.0025 0.5
0.00525 0.00025 0.0025 0.5
0.00025 0.00525 0.0025 0.5
0.00525 0.00025 -0.0025 0.5
0.00025 0.00575 -0.0025 0.5
0.00575 0.00025 0.0025 0.5
0.00575 0.00025 -0.0025 0.5
0.00025 0.00575 0.0025 0.5
0.0065 0.00025 5.2773e-20 0.5
0.00025 0.0065 0 0.5
0.0005 0.006 0.0025 0.5
0.0005 0.006 -0.0025 0.5
0.006 0.0005 -0.0025 0.5
0.006 0.0005 0.0025 0.5
0.00625 0.00025 0.0025 0.5
0.00025 0.00625 0.0025 0.5
0.00025 0.00625 -0.0025 0.5
0.00625 0.00025 -0.0025 0.5
0.00025 0.00675 0.0025 0.5
0.00675 0.00025 0.0025 0.5
0.00025 0.00675 -0.0025 0.5
0.00675 0.00025 -0.0025 0.5
0.007 0.0005 -0.0025 0.5
0.0005 0.007 0.0025 0.5
0.0005 0.007 -0.0025 0.5
0.007 0.0005 0.0025 0.5
0.0075 0.00025 4.99235e-20 0.5
0.00025 0.0075 -2.43945e-19 0.5
0.00025 0.00725 0.0025 0.5
0.00025 0.00725 -0.0025 0.5
0.00725 0.00025 -0.0025 0.5
0.00725 0.00025 0.0025 0.5
0.00025 0.00775 0.0025 0.5
0.00025 0.00775 -0.0025 0.5
0.00775 0.00025 -0.0025 0.5
0.00775 0.00025 0.0025 0.5
0.008 0.0005 -0.0025 0.5
0.008 0.0005 0.0025 0.5
0.0005 0.008 0.0025 0.5
0.0005 0.008 -0.0025 0.5
0.0085 0.00025 -2.36936e-21 0.5
0.00025 0.0085 2.43945e-19 0.5
0.00025 0.00825 0.0025 0.5
0.00825 0.00025 0.0025 0.5
0.00025 0.00825 -0.0025 0.5
0.00825 0.00025 -0.0025 0.5
0.00875 0.00025 0.0025 0.5
0.00025 0.00875 -0.0025 0.5
0.00025 0.00875 0.0025 0.5
0.00875 0.00025 -0.0025 0.5
0.009 0.0005 -0.0025 0.5
0.009 0.0005 0.0025 0.5
0.0005 0.009 0.0025 0.5
0.0005 0.009 -0.0025 0.5
0.0095 0.00025 -8.67352e-20 0.5
0.00025 0.0095 0 0.5
0.00025 0.00925 -0.0025 0.5
0.00025 0.00925 0.0025 0.5
0.00925 0.00025 0.0025 0.5
0.00925 0.00025 -0.0025 0.5
0.00025 0.00975 0.0025 0.5
0.00975 0.00025 0.0025 0.5
0.00025 0.00975 -0.0025 0.5
0.00975 0.00025 -0.0025 0.5
0.01 0.0005 -0.0025 0.5
0.01 0.0005 0.0025 0.5
0.0005 0.01 0.0025 0.5
0.0005 0.01 -0.0025 0.5
0.00025 0.0105 0 0.5
0.0105 0.00025 -7.98788e-20 0.5
0.01025 0.00025 0.0025 0.5
0.00025 0.01025 -0.0025 0.5
0.00025 0.01025 0.0025 0.5
0.01025 0.00025 -0.0025 0.5
0.01075 0.00025 0.0025 0.5
0.00025 0.01075 -0.0025 0.5
0.00025 0.01075 0.0025 0.5
0.01075 0.00025 -0.0025 0.5
0.011 0.0005 -0.0025 0.5
0.011 0.0005 0.0025 0.5
0.0005 0.011 0.0025 0.5
0.0005 0.011 -0.0025 0.5
0.0115 0.00025 0 0.5
0.00025 0.0115 0 0.5
0.00025 0.01125 0.0025 0.5
0.01125 0.00025 0.0025 0.5
0.00025 0.01125 -0.0025 0.5
0.01125 0.00025 -0.0025 0.5
0.00025 0.01175 0.0025 0.5
0.01175 0.00025 0.0025 0.5
0.00025 0.01175 -0.0025 0.5
0.01175 0.00025 -0.0025 0.5
0.0005 0.012 0.0025 0.5
0.0005 0.012 -0.0025 0.5
0.012 0.0005 -0.0025 0.5
0.012 0.0005 0.0025 0.5
0.0125 0.00025 -6.56015e-22 0.5
0.00025 0.0125 0 0.5
0.01225 0.00025 0.0025 0.5
0.00025 0.01225 -0.0025 0.5
0.01225 0.00025 -0.0025 0.5
0.00025 0.01225 0.0025 0.5
0.01275 0.00025 0.0025 0.5
0.00025 0.01275 -0.0025 0.5
0.01275 0.00025 -0.0025 0.5
0.00025 0.01275 0.0025 0.5
0.013 0.0005 -0.0025 0.5
0.013 0.0005 0.0025 0.5
0.0005 0.013 0.0025 0.5
0.0005 0.013 -0.0025 0.5
0.01325 0.00025 0.0025 0.5
0.01325 0.00025 -0.0025 0.5
0.00025 0.01325 0.0025 0.5
0.00025 0.01325 -0.0025 0.5
0.00025 0.0135 0 0.5
0.0135 0.00025 0 0.5
0.01375 0.00025 0.0025 0.5
0.01375 0.00025 -0.0025 0.5
0.00025 0.01375 0.0025 0.5
0.00025 0.01375 -0.0025 0.5
0.014 0.0005 -0.0025 0.5
0.014 0.0005 0.0025 0.5
0.0005 0.014 0.0025 0.5
0.0005 0.014 -0.0025 0.5
0.00025 0.01425 0.0025 0.5
0.01425 0.00025 0.0025 0.5
0.00025 0.01425 -0.0025 0.5
0.01425 0.00025 -0.0025 0.5
0.00025 0.0145 0 0.5
0.0145 0.00025 -8.63823e-20 0.5
0.00025 0.01475 0.0025 0.5
0.01475 0.00025 0.0025 0.5
0.00025 0.01475 -0.0025 0.5
0.01475 0.00025 -0.0025 0.5
0.015 0.0005 -0.0025 0.5
0.015 0.0005 0.0025 0.5
0.0005 0.015 0.0025 0.5
0.0005 0.015 -0.0025 0.5
0.00025 0.01525 0.0025 0.5
0.01525 0.00025 0.0025 0.5
0.00025 0.01525 -0.0025 0.5
0.01525 0.00025 -0.0025 0.5
0.0155 0.00025 -7.83693e-20 0.5
0.00025 0.0155 0 0.5
0.00025 0.01575 0.0025 0.5
0.01575 0.00025 0.0025 0.5
0.00025 0.01575 -0.0025 0.5
0.01575 0.00025 -0.0025 0.5
0.0005 0.016 0.0025 0.5
0.0005 0.016 -0.0025 0.5
0.016 0.000714484 -0.0025 0.5
0.016 0.000714484 0.0025 0.5
0.0162693 0.000649208 6.82236e-21 0.5
0.00025 0.01625 0.0025 0.5
0.00025 0.01625 -0.0025 0.5
0.0162762 0.000723812 -0.0025 0.5
0.0162762 0.000723812 0.0025 0.5
0.0164258 0.00149592 4.05941e-20 0.5
0.00025 0.0165 0 0.5
0.0163996 0.001 0.0025 0.5
0.0163996 0.001 -0.0025 0.5
0.0164186 0.00141858 -0.0025 0.5
0.0164186 0.00141858 0.0025 0.5
0.0164308 0.00156916 0.0025 0.5
0.0164308 0.00156916 -0.0025 0.5
0.0165133 0.00248811 1.24768e-21 0.5
0.0164842 0.002 0.0025 0.5
0.0164842 0.002 -0.0025 0.5
0.0165137 0.00248635 0.0025 0.5
0.0165137 0.00248635 -0.0025 0.5
0.0165151 0.00251515 0.0025 0.5
0.0165151 0.00251515 -0.0025 0.5
0.00025 0.01675 0.0025 0.5
0.00025 0.01675 -0.0025 0.5
0.0166174 0.00350452 8.74807e-20 0.5
0.0165367 0.003 0.0025 0.5
0.0165367 0.003 -0.0025 0.5
0.0166109 0.00338906 -0.0025 0.5
0.0166109 0.00338906 0.0025 0.5
0.0005 0.017 0.0025 0.5
0.0005 0.017 -0.0025 0.5
0.0166245 0.00362449 -0.0025 0.5
0.0166245 0.00362449 0.0025 0.5
0.0166015 0.004 0.0025 0.5
0.0166015 0.004 -0.0025 0.5
0.0167159 0.00450854 1.02785e-19 0.5
0.0167036 0.00429638 0.0025 0.5
0.0167036 0.00429638 -0.0025 0.5
0.00025 0.01725 -0.0025 0.5
0.00025 0.01725 0.0025 0.5
0.00025 0.0175 0 0.5
0.0167292 0.00472924 0.0025 0.5
0.0167292 0.00472924 -0.0025 0.5
0.0166766 0.005 0.0025 0.5
0.0166766 0.005 -0.0025 0.5
0.0167861 0.00521387 0.00143065 0.5
0.0167861 0.00521387 -0.00143065 0.5
0.016802 0.0055 -3.7442e-19 0.5
0.0167861 0.00521387 0.0025 0.5
0.0167861 0.00521387 -0.0025 0.5
0.0168202 0.0058202 -0.00160099 0.5
0.0168202 0.0058202 0.00160099 0.5
0.00025 0.01775 -0.0025 0.5
0.00025 0.01775 0.0025 0.5
0.0168202 0.0058202 -0.0025 0.5
0.0168202 0.0058202 0.0025 0.5
0.0167571 0.006 0.0025 0.5
0.0167571 0.006 -0.0025 0.5
0.0168551 0.00614487 0.00177564 0.5
0.0168551 0.00614487 -0.00177564 0.5
0.0168733 0.0065 2.82464e-19 0.5
0.0168551 0.00614487 0.0025 0.5
0.0168551 0.00614487 -0.0025 0.5
0.0005 0.018 0.0025 0.5
0.0005 0.018 -0.0025 0.5
0.0168915 0.0068915 -0.00195751 0.5
0.0168915 0.0068915 0.00195751 0.5
0.016835 0.007 0.0025 0.5
0.016835 0.007 -0.0025 0.5
0.0168915 0.0068915 0.0025 0.5
0.0168915 0.0068915 -0.0025 0.5
0.00025 0.01825 0.0025 0.5
0.00025 0.01825 -0.0025 0.5
0.0169092 0.00709075 -0.00204623 0.5
0.0169092 0.00709075 0.00204623 0.5
0.00025 0.0185 -4.33681e-19 0.5
0.0169092 0.00709075 -0.0025 0.5
0.0169092 0.00709075 0.0025 0.5
0.0169267 0.0075 6.15994e-20 0.5
0.016941 0.00794103 -0.00220513 0.5
0.016941 0.00794103 0.00220513 0.5
0.0169005 0.008 0.0025 0.5
0.0169005 0.008 -0.0025 0.5
0.016941 0.00794103 0.0025 0.5
0.016941 0.00794103 -0.0025 0.5
0.016948 0.00805199 0.00224006 0.5
0.016948 0.00805199 -0.00224006 0.5
0.00025 0.01875 0.0025 0.5
0.00025 0.01875 -0.0025 0.5
0.016948 0.00805199 0.0025 0.5
0.016948 0.00805199 -0.0025 0.5
0.0169617 0.0085 5.17485e-19 0.5
0.0005 0.019 0.0025 0.5
0.0005 0.019 -0.0025 0.5
0.0169684 0.00896836 -0.00234179 0.5
0.0169684 0.00896836 0.00234179 0.5
0.0169421 0.009 -0.0025 0.5
0.0169421 0.009 0.0025 0.5
0.0169684 0.00896836 -0.0025 0.5
0.0169684 0.00896836 0.0025 0.5
0.0169701 0.00902991 0.00235044 0.5
0.0169701 0.00902991 -0.00235044 0.5
0.0169701 0.00902991 0.0025 0.5
0.0169701 0.00902991 -0.0025 0.5
0.00025 0.01925 0.0025 0.5
0.00025 0.01925 -0.0025 0.5
0.0169766 0.0095 -3.71111e-19 0.5
0.00025 0.0195 4.33681e-19 0.5
0.0169739 0.00997394 -0.00236972 0.5
0.0169739 0.00997394 0.00236972 0.5
0.0169499 0.01 0.0025 0.5
0.0169499 0.01 -0.0025 0.5
0.0169739 0.00997394 0.0025 0.5
0.0169739 0.00997394 -0.0025 0.5
0.0169733 0.0100267 0.00236675 0.5
0.0169733 0.0100267 -0.00236675 0.5
0.0169733 0.0100267 0.0025 0.5
0.0169733 0.0100267 -0.0025 0.5
0.00025 0.01975 0.0025 0.5
0.00025 0.01975 -0.0025 0.5
0.0169707 0.0105 8.92698e-21 0.5
0.0005 0.02 0.0025 0.5
0.0005 0.02 -0.0025 0.5
0.01696 0.01096 -0.00229981 0.5
0.01696 0.01096 0.00229981 0.5
0.0169226 0.011 0.0025 0.5
0.0169226 0.011 -0.0025 0.5
0.01696 0.01096 0.0025 0.5
0.01696 0.01096 -0.0025 0.5
0.016956 0.011044 0.00227978 0.5
0.016956 0.011044 -0.00227978 0.5
0.016956 0.011044 0.0025 0.5
0.016956 0.011044 -0.0025 0.5
0.00025 0.02025 0.0025 0.5
0.00025 0.02025 -0.0025 0.5
0.0169448 0.0115 -2.314e-19 0.5
0.00025 0.0205 0 0.5
0.0169286 0.0119286 -0.00214306 0.5
0.0169286 0.0119286 0.00214306 0.5
0.0168665 0.012 0.0025 0.5
0.0168665 0.012 -0.0025 0.5
0.0169286 0.0119286 0.0025 0.5
0.0169286 0.0119286 -0.0025 0.5
0.0169164 0.0120836 0.00208213 0.5
0.0169164 0.0120836 -0.00208213 0.5
0.00025 0.02075 -0.0025 0.5
0.00025 0.02075 0.0025 0.5
0.0169164 0.0120836 0.0025 0.5
0.0169164 0.0120836 -0.0025 0.5
0.0168994 0.0125 0 0.5
0.0005 0.021 0.0025 0.5
0.0005 0.021 -0.0025 0.5
0.0168808 0.0128808 -0.00190404 0.5
0.0168808 0.0128808 0.00190404 0.5
0.0168808 0.0128808 0.0025 0.5
0.0168808 0.0128808 -0.0025 0.5
0.0167919 0.013 0.0025 0.5
0.0167919 0.013 -0.0025 0.5
0.00025 0.02125 0.0025 0.5
0.00025 0.02125 -0.0025 0.5
0.0168536 0.0131464 0.00176784 0.5
0.0168536 0.0131464 -0.00176784 0.5
0.00025 0.0215 0 0.5
0.0168536 0.0131464 -0.0025 0.5
0.0168536 0.0131464 0.0025 0.5
0.0168345 0.0135 6.06257e-20 0.5
0.0168171 0.0138171 -0.00158554 0.5
0.0168171 0.0138171 0.00158554 0.5
0.00025 0.02175 0.0025 0.5
0.00025 0.02175 -0.0025 0.5
0.0168171 0.0138171 0.0025 0.5
0.0168171 0.0138171 -0.0025 0.5
0.0167102 0.014 0.0025 0.5
0.0167102 0.014 -0.0025 0.5
0.0167692 0.0142308 0.00134609 0.5
0.0167692 0.0142308 -0.00134609 0.5
0.0167692 0.0142308 0.0025 0.5
0.0167692 0.0142308 -0.0025 0.5
0.0005 0.022 0.0025 0.5
0.0005 0.022 -0.0025 0.5
0.0167443 0.01466 -6.60526e-20 0.5
0.00025 0.02225 0.0025 0.5
0.00025 0.02225 -0.0025 0.5
0.0167401 0.0147401 0.0025 0.5
0.0167401 0.0147401 -0.0025 0.5
0.00025 0.0225 0 0.5
0.0166339 0.015 0.0025 0.5
0.0166339 0.015 -0.0025 0.5
0.0166663 0.0154944 -4.58063e-19 0.5
0.0166753 0.0153247 -0.0025 0.5
0.0166753 0.0153247 0.0025 0.5
0.00025 0.02275 0.0025 0.5
0.00025 0.02275 -0.0025 0.5
0.0166584 0.0156584 -0.0025 0.5
0.0166584 0.0156584 0.0025 0.5
0.0005 0.023 0.0025 0.5
0.0005 0.023 -0.0025 0.5
0.0165739 0.016 0.0025 0.5
0.0165739 0.016 -0.0025 0.5
0.00025 0.02325 0.0025 0.5
0.00025 0.02325 -0.0025 0.5
0.0165901 0.0164979 6.30295e-19 0.5
0.0165936 0.0164064 0.0025 0.5
0.0165936 0.0164064 -0.0025 0.5
0.00025 0.0235 0 0.5
0.0165873 0.0165873 0.0025 0.5
0.0165873 0.0165873 -0.0025 0.5
0.0165364 0.017 0.0025 0.5
0.0165364 0.017 -0.0025 0.5
0.00025 0.02375 0.0025 0.5
0.00025 0.02375 -0.0025 0.5
0.0165457 0.0174998 -3.40869e-20 0.5
0.0005 0.024 0.0025 0.5
0.0005 0.024 -0.0025 0.5
0.0165463 0.0174537 -0.0025 0.5
0.0165463 0.0174537 0.0025 0.5
0.0165456 0.0175456 -0.0025 0.5
0.0165456 0.0175456 0.0025 0.5
0.00025 0.02425 0.0025 0.5
0.00025 0.02425 -0.0025 0.5
0.00025 0.0245 0 0.5
0.0165285 0.018 0.0025 0.5
0.0165285 0.018 -0.0025 0.5
0.0165645 0.0185022 -4.06811e-19 0.5
0.00025 0.02475 0.0025 0.5
0.00025 0.02475 -0.0025 0.5
0.0165621 0.0184379 0.0025 0.5
0.0165621 0.0184379 -0.0025 0.5
0.0165688 0.0185688 0.0025 0.5
0.0165688 0.0185688 -0.0025 0.5
0.0005 0.025 0.0025 0.5
0.0005 0.025 -0.0025 0.5
0.0165808 0.019 0.0025 0.5
0.0165808 0.019 -0.0025 0.5
0.00025 0.02525 -0.0025 0.5
0.00025 0.02525 0.0025 0.5
0.00025 0.0255 0 0.5
0.0166944 0.0193736 1.52381e-19 0.5
0.0166897 0.0193103 0.0025 0.5
0.0166897 0.0193103 -0.0025 0.5
0.00025 0.02575 -0.0025 0.5
0.00025 0.02575 0.0025 0.5
0.0167729 0.0197729 -0.00136468 0.5
0.0167729 0.0197729 0.00136468 0.5
0.0167729 0.0197729 0.0025 0.5
0.0167729 0.0197729 -0.0025 0.5
0.0005 0.026 0.0025 0.5
0.0005 0.026 -0.0025 0.5
0.0167868 0.02 0.0025 0.5
0.0167868 0.02 -0.0025 0.5
0.0169035 0.0200965 0.00201744 0.5
0.0169035 0.0200965 -0.00201744 0.5
0.00025 0.02625 0.0025 0.5
0.00025 0.02625 -0.0025 0.5
0.0169035 0.0200965 0.0025 0.5
0.0169035 0.0200965 -0.0025 0.5
0.00025 0.0265 0 0.5
0.0169712 0.0205 7.131e-19 0.5
0.00025 0.02675 0.0025 0.5
0.00025 0.02675 -0.0025 0.5
0.017 0.0209401 -0.0025 0.5
0.017 0.0209401 0.0025 0.5
0.0005 0.027 0.0025 0.5
0.0005 0.027 -0.0025 0.5
0.0170067 0.0209933 -0.00246651 0.5
0.0170067 0.0209933 0.00246651 0.5
0.0170067 0.0209933 0.0025 0.5
0.0170067 0.0209933 -0.0025 0.5
0.017008 0.021008 -0.00246008 0.5
0.017008 0.021008 0.00246008 0.5
0.017014 0.021 0.0025 0.5
0.017014 0.021 -0.0025 0.5
0.017008 0.021008 0.0025 0.5
0.017008 0.021008 -0.0025 0.5
0.00025 0.02725 0.0025 0.5
0.00025 0.02725 -0.0025 0.5
0.0170444 0.0215 -2.85106e-19 0.5
0.00025 0.0275 0 0.5
0.0170984 0.0219016 -0.00200787 0.5
0.0170984 0.0219016 0.00200787 0.5
0.00025 0.02775 0.0025 0.5
0.00025 0.02775 -0.0025 0.5
0.0170984 0.0219016 0.0025 0.5
0.0170984 0.0219016 -0.0025 0.5
0.0172051 0.022 0.0025 0.5
0.0172051 0.022 -0.0025 0.5
0.0171872 0.0221872 -0.00156403 0.5
0.0171872 0.0221872 0.00156403 0.5
0.0005 0.028 0.0025 0.5
0.0005 0.028 -0.0025 0.5
0.0171872 0.0221872 0.0025 0.5
0.0171872 0.0221872 -0.0025 0.5
0.00025 0.02825 0.0025 0.5
0.00025 0.02825 -0.0025 0.5
0.00025 0.0285 0 0.5
0.0173315 0.0226865 -1.08821e-18 0.5
0.0173111 0.0226889 0.0025 0.5
0.0173111 0.0226889 -0.0025 0.5
0.00025 0.02875 0.0025 0.5
0.00025 0.02875 -0.0025 0.5
0.0175644 0.023 0.0025 0.5
0.0175644 0.023 -0.0025 0.5
0.0005 0.029 0.0025 0.5
0.0005 0.029 -0.0025 0.5
0.0177898 0.0232102 0.00144884 0.5
0.0177898 0.0232102 -0.00144884 0.5
0.0177898 0.0232102 0.0025 0.5
0.0177898 0.0232102 -0.0025 0.5
0.00025 0.02925 0.0025 0.5
0.00025 0.02925 -0.0025 0.5
0.00025 0.0295 -1.6263e-19 0.5
0.0178751 0.0235 1.07773e-18 0.5
0.00025 0.02975 0.0025 0.5
0.00025 0.02975 -0.0025 0.5
0.0179545 0.0239545 -0.00227244 0.5
0.0179545 0.0239545 0.00227244 0.5
0.0179545 0.0239545 0.0025 0.5
0.0179545 0.0239545 -0.0025 0.5
0.0179374 0.024 0.0025 0.5
0.0179374 0.024 -0.0025 0.5
0.0179716 0.0240284 0.00235822 0.5
0.0179716 0.0240284 -0.00235822 0.5
0.0005 0.03 0.0025 0.5
0.0005 0.03 -0.0025 0.5
0.0179716 0.0240284 0.0025 0.5
0.0179716 0.0240284 -0.0025 0.5
0.018 0.0242462 -0.0025 0.5
0.018 0.0242462 0.0025 0.5
0.00025 0.03025 0.0025 0.5
0.00025 0.03025 -0.0025 0.5
0.0180432 0.0245 1.95348e-19 0.5
0.00025 0.0305 0 0.5
0.00025 0.03075 0.0025 0.5
0.00025 0.03075 -0.0025 0.5
0.0180898 0.0249102 -0.00205103 0.5
0.0180898 0.0249102 0.00205103 0.5
0.0180898 0.0249102 0.0025 0.5
0.0180898 0.0249102 -0.0025 0.5
0.0181841 0.025 0.0025 0.5
0.0181841 0.025 -0.0025 0.5
0.0181516 0.0251516 -0.00174182 0.5
0.0181516 0.0251516 0.00174182 0.5
0.0005 0.031 0.0025 0.5
0.0005 0.031 -0.0025 0.5
0.0181516 0.0251516 0.0025 0.5
0.0181516 0.0251516 -0.0025 0.5
0.00025 0.03125 0.0025 0.5
0.00025 0.03125 -0.0025 0.5
0.018237 0.0256639 4.54085e-20 0.5
0.00025 0.0315 0 0.5
0.0182541 0.0257459 -0.0025 0.5
0.0182541 0.0257459 0.0025 0.5
0.00025 0.03175 0.0025 0.5
0.00025 0.03175 -0.0025 0.5
0.018437 0.026 0.0025 0.5
0.018437 0.026 -0.0025 0.5
0.0005 0.032 0.0025 0.5
0.0005 0.032 -0.0025 0.5
0.00025 0.03225 0.0025 0.5
0.00025 0.03225 -0.0025 0.5
0.0186164 0.0263836 0.0025 0.5
0.0186164 0.0263836 -0.0025 0.5
0.0186454 0.0264941 3.06772e-19 0.5
0.00025 0.0325 0 0.5
0.0187245 0.0267245 0.0025 0.5
0.0187245 0.0267245 -0.0025 0.5
0.00025 0.03275 0.0025 0.5
0.00025 0.03275 -0.0025 0.5
0.0187902 0.027 -0.0025 0.5
0.0187902 0.027 0.0025 0.5
0.0005 0.033 0.0025 0.5
0.0005 0.033 -0.0025 0.5
0.0189125 0.0270875 0.00206271 0.5
0.0189125 0.0270875 -0.00206271 0.5
0.0189125 0.0270875 -0.0025 0.5
0.0189125 0.0270875 0.0025 0.5
0.00025 0.03325 0.0025 0.5
0.00025 0.03325 -0.0025 0.5
0.0189974 0.0275 1.69612e-19 0.5
0.00025 0.0335 0 0.5
0.019 0.0278562 0.0025 0.5
0.019 0.0278562 -0.0025 0.5
0.00025 0.03375 0.0025 0.5
0.00025 0.03375 -0.0025 0.5
0.019017 0.027983 -0.00241487 0.5
0.019017 0.027983 0.00241487 0.5
0.019017 0.027983 0.0025 0.5
0.019017 0.027983 -0.0025 0.5
0.0190353 0.028 0.0025 0.5
0.0190353 0.028 -0.0025 0.5
0.0190199 0.0280199 -0.00240031 0.5
0.0190199 0.0280199 0.00240031 0.5
0.0190199 0.0280199 0.0025 0.5
0.0190199 0.0280199 -0.0025 0.5
0.0005 0.034 0.0025 0.5
0.0005 0.034 -0.0025 0.5
0.0190409 0.0285 -4.67436e-20 0.5
0.00025 0.03425 0.0025 0.5
0.00025 0.03425 -0.0025 0.5
0.00025 0.0345 0 0.5
0.0190687 0.0289313 -0.00215656 0.5
0.0190687 0.0289313 0.00215656 0.5
0.0190687 0.0289313 0.0025 0.5
0.0190687 0.0289313 -0.0025 0.5
0.0191352 0.029 0.0025 0.5
0.0191352 0.029 -0.0025 0.5
0.00025 0.03475 0.0025 0.5
0.00025 0.03475 -0.0025 0.5
0.0190906 0.0290906 -0.00204688 0.5
0.0190906 0.0290906 0.00204688 0.5
0.0190906 0.0290906 0.0025 0.5
0.0190906 0.0290906 -0.0025 0.5
0.0005 0.035 0.0025 0.5
0.0005 0.035 -0.0025 0.5
0.0191209 0.0295 -4.66037e-20 0.5
0.00025 0.03525 0.0025 0.5
0.00025 0.03525 -0.0025 0.5
0.00025 0.0355 0 0.5
0.0191427 0.0298573 -0.00178655 0.5
0.0191427 0.0298573 0.00178655 0.5
0.0191427 0.0298573 0.0025 0.5
0.0191427 0.0298573 -0.0025 0.5
0.0192438 0.03 0.0025 0.5
0.0192438 0.03 -0.0025 0.5
0.0191853 0.0301853 -0.00157348 0.5
0.0191853 0.0301853 0.00157348 0.5
0.00025 0.03575 0.0025 0.5
0.00025 0.03575 -0.0025 0.5
0.0191853 0.0301853 -0.0025 0.5
0.0191853 0.0301853 0.0025 0.5
0.0192072 0.0305 8.97219e-19 0.5
0.0005 0.036 0.0025 0.5
0.0005 0.036 -0.0025 0.5
0.0192164 0.0307836 -0.00141793 0.5
0.0192164 0.0307836 0.00141793 0.5
0.00025 0.03625 0.0025 0.5
0.00025 0.03625 -0.0025 0.5
0.0192164 0.0307836 -0.0025 0.5
0.0192164 0.0307836 0.0025 0.5
0.00025 0.0365 0 0.5
0.019316 0.031 0.0025 0.5
0.019316 0.031 -0.0025 0.5
0.0192477 0.0312477 -0.00126148 0.5
0.0192477 0.0312477 0.00126148 0.5
0.0192477 0.0312477 -0.0025 0.5
0.0192477 0.0312477 0.0025 0.5
0.00025 0.03675 0.0025 0.5
0.00025 0.03675 -0.0025 0.5
0.0192552 0.0316636 -2.71841e-19 0.5
0.0005 0.037 0.0025 0.5
0.0005 0.037 -0.0025 0.5
0.0192546 0.0317454 -0.0025 0.5
0.0192546 0.0317454 0.0025 0.5
0.00025 0.03725 -0.0025 0.5
0.00025 0.03725 0.0025 0.5
0.0193339 0.032 0.0025 0.5
0.0193339 0.032 -0.0025 0.5
0.00025 0.0375 -6.77626e-19 0.5
0.0192469 0.0322469 -0.00126568 0.5
0.0192469 0.0322469 0.00126568 0.5
0.0192469 0.0322469 0.0025 0.5
0.0192469 0.0322469 -0.0025 0.5
0.0192449 0.0325 -1.27296e-18 0.5
0.00025 0.03775 0.0025 0.5
0.00025 0.03775 -0.0025 0.5
0.019233 0.032767 0.00133482 0.5
0.019233 0.032767 -0.00133482 0.5
0.019233 0.032767 0.0025 0.5
0.019233 0.032767 -0.0025 0.5
0.0005 0.038 0.0025 0.5
0.0005 0.038 -0.0025 0.5
0.0192989 0.033 0.0025 0.5
0.0192989 0.033 -0.0025 0.5
0.00025 0.03825 0.0025 0.5
0.00025 0.03825 -0.0025 0.5
0.0191964 0.0331964 -0.00151793 0.5
0.0191964 0.0331964 0.00151793 0.5
0.0191964 0.0331964 0.0025 0.5
0.0191964 0.0331964 -0.0025 0.5
0.00025 0.0385 8.67362e-19 0.5
0.019184 0.0335 1.49291e-18 0.5
0.00025 0.03875 0.0025 0.5
0.00025 0.03875 -0.0025 0.5
0.0191632 0.0338368 -0.00168421 0.5
0.0191632 0.0338368 0.00168421 0.5
0.0191632 0.0338368 0.0025 0.5
0.0191632 0.0338368 -0.0025 0.5
0.0005 0.039 0.0025 0.5
0.0005 0.039 -0.0025 0.5
0.0192238 0.034 0.0025 0.5
0.0192238 0.034 -0.0025 0.5
0.0191291 0.0341291 0.0018545 0.5
0.0191291 0.0341291 -0.0018545 0.5
0.0191291 0.0341291 0.0025 0.5
0.0191291 0.0341291 -0.0025 0.5
0.00025 0.03925 -0.0025 0.5
0.00025 0.03925 0.0025 0.5
0.0191087 0.0345 -8.89193e-19 0.5
0.00025 0.0395 0 0.5
0.00025 0.03975 -0.0025 0.5
0.00025 0.03975 0.0025 0.5
0.0190839 0.0349161 0.00208069 0.5
0.0190839 0.0349161 -0.00208069 0.5
0.0190839 0.0349161 0.0025 0.5
0.0190839 0.0349161 -0.0025 0.5
0.0191296 0.035 0.0025 0.5
0.0191296 0.035 -0.0025 0.5
0.0190669 0.0350669 -0.00216553 0.5
0.0190669 0.0350669 0.00216553 0.5
0.0190669 0.0350669 -0.0025 0.5
0.0190669 0.0350669 0.0025 0.5
0.0005 0.04 0.0025 0.5
0.0005 0.04 -0.0025 0.5
0.0190438 0.0355 7.51808e-19 0.5
0.00025 0.04025 0.0025 0.5
0.00025 0.04025 -0.0025 0.5
0.00025 0.0405 6.77626e-19 0.5
0.0190267 0.0359733 -0.00236634 0.5
0.0190267 0.0359733 0.00236634 0.5
0.0190267 0.0359733 -0.0025 0.5
0.0190267 0.0359733 0.0025 0.5
0.0190474 0.036 0.0025 0.5
0.0190474 0.036 -0.0025 0.5
0.0190232 0.0360232 0.00238375 0.5
0.0190232 0.0360232 -0.00238375 0.5
0.0190232 0.0360232 0.0025 0.5
0.0190232 0.0360232 -0.0025 0.5
0.00025 0.04075 0.0025 0.5
0.00025 0.04075 -0.0025 0.5
0.019 0.0363038 -0.0025 0.5
0.019 0.0363038 0.0025 0.5
0.0005 0.041 -0.0025 0.5
0.0005 0.041 0.0025 0.5
0.0190072 0.0365 3.76744e-20 0.5
0.00025 0.04125 0.0025 0.5
0.00025 0.04125 -0.0025 0.5
0.00025 0.0415 -6.77626e-19 0.5
0.018951 0.036951 -0.00225511 0.5
0.018951 0.036951 0.00225511 0.5
0.018951 0.036951 0.0025 0.5
0.018951 0.036951 -0.0025 0.5
0.0188906 0.037 0.0025 0.5
0.0188906 0.037 -0.0025 0.5
0.0189159 0.0370841 -0.00207965 0.5
0.0189159 0.0370841 0.00207965 0.5
0.0189159 0.0370841 -0.0025 0.5
0.0189159 0.0370841 0.0025 0.5
0.00025 0.04175 0.0025 0.5
0.00025 0.04175 -0.0025 0.5
0.0188495 0.0375 1.035e-18 0.5
0.0005 0.042 0.0025 0.5
0.0005 0.042 -0.0025 0.5
0.0187997 0.0377997 0.00149862 0.5
0.0187997 0.0377997 -0.00149862 0.5
0.0187997 0.0377997 0.0025 0.5
0.0187997 0.0377997 -0.0025 0.5
0.00025 0.04225 0.0025 0.5
0.00025 0.04225 -0.0025 0.5
0.018641 0.038 0.0025 0.5
0.018641 0.038 -0.0025 0.5
0.00025 0.0425 0 0.5
0.0185249 0.0385039 -1.41933e-18 0.5
0.0185347 0.0384653 0.0025 0.5
0.0185347 0.0384653 -0.0025 0.5
0.0185218 0.0385218 0.0025 0.5
0.0185218 0.0385218 -0.0025 0.5
0.00025 0.04275 0.0025 0.5
0.00025 0.04275 -0.0025 0.5
0.0005 0.043 0.0025 0.5
0.0005 0.043 -0.0025 0.5
0.018412 0.039 0.0025 0.5
0.018412 0.039 -0.0025 0.5
0.00025 0.04325 0.0025 0.5
0.00025 0.04325 -0.0025 0.5
0.0182487 0.0393403 4.00632e-21 0.5
0.0182605 0.0392605 0.0025 0.5
0.0182605 0.0392605 -0.0025 0.5
0.00025 0.0435 0 0.5
0.0181887 0.0398113 -0.00155661 0.5
0.0181887 0.0398113 0.00155661 0.5
0.00025 0.04375 0.0025 0.5
0.00025 0.04375 -0.0025 0.5
0.0181887 0.0398113 0.0025 0.5
0.0181887 0.0398113 -0.0025 0.5
0.0182296 0.04 0.0025 0.5
0.0182296 0.04 -0.0025 0.5
0.0181232 0.0401232 -0.00188412 0.5
0.0181232 0.0401232 0.00188412 0.5
0.0005 0.044 0.0025 0.5
0.0005 0.044 -0.0025 0.5
0.0181232 0.0401232 0.0025 0.5
0.0181232 0.0401232 -0.0025 0.5
0.00025 0.04425 0.0025 0.5
0.00025 0.04425 -0.0025 0.5
0.0180874 0.0405 9.30506e-20 0.5
0.00025 0.0445 -8.67362e-19 0.5
0.0180593 0.0409407 -0.00220349 0.5
0.0180593 0.0409407 0.00220349 0.5
0.0180593 0.0409407 -0.0025 0.5
0.0180593 0.0409407 0.0025 0.5
0.00025 0.04475 0.0025 0.5
0.00025 0.04475 -0.0025 0.5
0.0180945 0.041 -0.0025 0.5
0.0180945 0.041 0.0025 0.5
0.0180466 0.0410466 -0.00226689 0.5
0.0180466 0.0410466 0.00226689 0.5
0.0180466 0.0410466 0.0025 0.5
0.0180466 0.0410466 -0.0025 0.5
0.0005 0.045 0.0025 0.5
0.0005 0.045 -0.0025 0.5
0.018021 0.0415 8.93866e-19 0.5
0.00025 0.04525 0.0025 0.5
0.00025 0.04525 -0.0025 0.5
0.018 0.0417118 -0.0025 0.5
0.018 0.0417118 0.0025 0.5
0.00025 0.0455 1.49078e-18 0.5
0.0179816 0.0419816 -0.00240784 0.5
0.0179816 0.0419816 0.00240784 0.5
0.0179816 0.0419816 -0.0025 0.5
0.0179816 0.0419816 0.0025 0.5
0.0179609 0.042 -0.0025 0.5
0.0179609 0.042 0.0025 0.5
0.0179762 0.0420238 -0.00238107 0.5
0.0179762 0.0420238 0.00238107 0.5
0.0179762 0.0420238 -0.0025 0.5
0.0179762 0.0420238 0.0025 0.5
0.00025 0.04575 0.0025 0.5
0.00025 0.04575 -0.0025 0.5
0.0005 0.046 -0.0025 0.5
0.0005 0.046 0.0025 0.5
0.0179338 0.0425 -6.55757e-19 0.5
0.00025 0.04625 0.0025 0.5
0.00025 0.04625 -0.0025 0.5
0.0178738 0.0428738 -0.00186901 0.5
0.0178738 0.0428738 0.00186901 0.5
0.00025 0.0465 -8.67362e-19 0.5
0.0178738 0.0428738 0.0025 0.5
0.0178738 0.0428738 -0.0025 0.5
0.0177413 0.043 0.0025 0.5
0.0177413 0.043 -0.0025 0.5
0.00025 0.04675 0.0025 0.5
0.00025 0.04675 -0.0025 0.5
0.0177174 0.0432826 0.0025 0.5
0.0177174 0.0432826 -0.0025 0.5
0.0176564 0.0435207 2.55631e-19 0.5
0.0005 0.047 0.0025 0.5
0.0005 0.047 -0.0025 0.5
0.0176354 0.0436354 0.0025 0.5
0.0176354 0.0436354 -0.0025 0.5
0.00025 0.04725 0.0025 0.5
0.00025 0.04725 -0.0025 0.5
0.0174641 0.044 0.0025 0.5
0.0174641 0.044 -0.0025 0.5
0.00025 0.0475 0 0.5
0.0172734 0.0443584 9.84985e-19 0.5
0.0172877 0.0442877 0.0025 0.5
0.0172877 0.0442877 -0.0025 0.5
0.00025 0.04775 0.0025 0.5
0.00025 0.04775 -0.0025 0.5
0.0172249 0.0447751 -0.00137554 0.5
0.0172249 0.0447751 0.00137554 0.5
0.0172249 0.0447751 0.0025 0.5
0.0172249 0.0447751 -0.0025 0.5
0.0005 0.048 0.0025 0.5
0.0005 0.048 -0.0025 0.5
0.0172801 0.045 0.0025 0.5
0.0172801 0.045 -0.0025 0.5
0.00025 0.04825 0.0025 0.5
0.00025 0.04825 -0.0025 0.5
0.0171713 0.0451713 -0.00164329 0.5
0.0171713 0.0451713 0.00164329 0.5
0.0171713 0.0451713 -0.0025 0.5
0.0171713 0.0451713 0.0025 0.5
0.00025 0.0485 0 0.5
0.0171505 0.0455 -4.67251e-18 0.5
0.00025 0.04875 0.0025 0.5
0.00025 0.04875 -0.0025 0.5
0.0171399 0.0458601 0.00180042 0.5
0.0171399 0.0458601 -0.00180042 0.5
0.0171399 0.0458601 0.0025 0.5
0.0171399 0.0458601 -0.0025 0.5
0.0005 0.049 0.0025 0.5
0.0005 0.049 -0.0025 0.5
0.0172087 0.046 0.0025 0.5
0.0172087 0.046 -0.0025 0.5
0.0171247 0.0461247 0.00187626 0.5
0.0171247 0.0461247 -0.00187626 0.5
0.0171247 0.0461247 0.0025 0.5
0.0171247 0.0461247 -0.0025 0.5
0.00025 0.04925 0.0025 0.5
0.00025 0.04925 -0.0025 0.5
0.00025 0.0495 0 0.5
0.0171143 0.0465 3.43819e-18 0.5
0.00025 0.04975 0.0025 0.5
0.00025 0.04975 -0.0025 0.5
0.0170894 0.0469106 0.00205292 0.5
0.0170894 0.0469106 -0.00205292 0.5
0.0170894 0.0469106 0.0025 0.5
0.0170894 0.0469106 -0.0025 0.5
0.0005 0.05 0.0025 0.5
0.0005 0.05 -0.0025 0.5
0.0171367 0.047 0.0025 0.5
0.0171367 0.047 -0.0025 0.5
0.0170711 0.0470711 0.0021446 0.5
0.0170711 0.0470711 -0.0021446 0.5
0.0170711 0.0470711 0.0025 0.5
0.0170711 0.0470711 -0.0025 0.5
0.00025 0.05025 -0.0025 0.5
0.00025 0.05025 0.0025 0.5
0.0170479 0.0475 -9.51183e-20 0.5
0.00025 0.0505 1.49078e-18 0.5
0.00025 0.05075 -0.0025 0.5
0.00025 0.05075 0.0025 0.5
0.0170314 0.0479686 -0.00234276 0.5
0.0170314 0.0479686 0.00234276 0.5
0.0170314 0.0479686 0.0025 0.5
0.0170314 0.0479686 -0.0025 0.5
0.0170554 0.048 0.0025 0.5
0.0170554 0.048 -0.0025 0.5
0.0170275 0.0480275 -0.00236273 0.5
0.0170275 0.0480275 0.00236273 0.5
0.0170275 0.0480275 -0.0025 0.5
0.0170275 0.0480275 0.0025 0.5
0.0005 0.051 -0.0025 0.5
0.0005 0.051 0.0025 0.5
0.00025 0.05125 0.0025 0.5
0.00025 0.05125 -0.0025 0.5
0.017012 0.0485 -2.86265e-18 0.5
0.00025 0.0515 -1.49078e-18 0.5
0.017 0.0488441 0.0025 0.5
0.017 0.0488441 -0.0025 0.5
0.00025 0.05175 0.0025 0.5
0.00025 0.05175 -0.0025 0.5
0.0169949 0.0489949 0.00247468 0.5
0.0169949 0.0489949 -0.00247468 0.5
0.0169949 0.0489949 0.0025 0.5
0.0169949 0.0489949 -0.0025 0.5
0.0169896 0.049 0.0025 0.5
0.0169896 0.049 -0.0025 0.5
0.0169945 0.0490055 0.00247228 0.5
0.0169945 0.0490055 -0.00247228 0.5
0.0169945 0.0490055 0.0025 0.5
0.0169945 0.0490055 -0.0025 0.5
0.0005 0.052 0.0025 0.5
0.0005 0.052 -0.0025 0.5
0.00025 0.05225 0.0025 0.5
0.00025 0.05225 -0.0025 0.5
0.0169771 0.0495 2.75215e-18 0.5
0.00025 0.0525 0 0.5
0.0169536 0.0499536 -0.00226818 0.5
0.0169536 0.0499536 0.00226818 0.5
0.00025 0.05275 0.0025 0.5
0.00025 0.05275 -0.0025 0.5
0.0169536 0.0499536 0.0025 0.5
0.0169536 0.0499536 -0.0025 0.5
0.0169068 0.05 0.0025 0.5
0.0169068 0.05 -0.0025 0.5
0.0169423 0.0500577 0.00221143 0.5
0.0169423 0.0500577 -0.00221143 0.5
0.0169423 0.0500577 0.0025 0.5
0.0169423 0.0500577 -0.0025 0.5
0.0005 0.053 0.0025 0.5
0.0005 0.053 -0.0025 0.5
0.0169168 0.0505 2.99993e-18 0.5
0.00025 0.05325 0.0025 0.5
0.00025 0.05325 -0.0025 0.5
0.00025 0.0535 0 0.5
0.016923 0.050923 -0.00211518 0.5
0.016923 0.050923 0.00211518 0.5
0.016923 0.050923 -0.0025 0.5
0.016923 0.050923 0.0025 0.5
0.01687 0.051 -0.0025 0.5
0.01687 0.051 0.0025 0.5
0.00025 0.05375 0.0025 0.5
0.00025 0.05375 -0.0025 0.5
0.0169274 0.0510726 -0.00213698 0.5
0.0169274 0.0510726 0.00213698 0.5
0.0169274 0.0510726 -0.0025 0.5
0.0169274 0.0510726 0.0025 0.5
0.0005 0.054 0.0025 0.5
0.0005 0.054 -0.0025 0.5
0.0169335 0.0515 -2.79263e-18 0.5
0.00025 0.05425 0.0025 0.5
0.00025 0.05425 -0.0025 0.5
0.00025 0.0545 0 0.5
0.0169677 0.0519677 -0.00233861 0.5
0.0169677 0.0519677 0.00233861 0.5
0.0169677 0.0519677 0.0025 0.5
0.0169677 0.0519677 -0.0025 0.5
0.0169469 0.052 0.0025 0.5
0.0169469 0.052 -0.0025 0.5
0.0169749 0.0520251 0.00237458 0.5
0.0169749 0.0520251 -0.00237458 0.5
0.0169749 0.0520251 0.0025 0.5
0.0169749 0.0520251 -0.0025 0.5
0.00025 0.05475 0.0025 0.5
0.00025 0.05475 -0.0025 0.5
0.0005 0.055 0.0025 0.5
0.0005 0.055 -0.0025 0.5
0.0170059 0.0525 3.04732e-21 0.5
0.017 0.0525363 -0.0025 0.5
0.017 0.0525363 0.0025 0.5
0.00025 0.05525 0.0025 0.5
0.00025 0.05525 -0.0025 0.5
0.00025 0.0555 0 0.5
0.0170223 0.0529777 -0.00238833 0.5