# f_l  POINT_DATA 1564
#  x  y  z  f_l
0.0412646 0.001665 5.40715e-20 0.5
0.0412875 0.0012811 -0.00172928 0.5
0.0412875 0.0012811 0.00172928 0.5
0.0412791 0.0020573 -0.00176711 0.5
0.0412791 0.0020573 0.00176711 0.5
0.0413412 0.000885267 -0.00148769 0.5
0.0413412 0.000885267 0.00148769 0.5
0.0412875 0.0012811 0.0025 0.5
0.0412875 0.0012811 -0.0025 0.5
0.0413005 0.00240409 -0.00167079 0.5
0.0413005 0.00240409 0.00167079 0.5
0.0412791 0.0020573 0.0025 0.5
0.0412791 0.0020573 -0.0025 0.5
0.041315 0.002775 -2.4156e-21 0.5
0.0413412 0.000885267 0.0025 0.5
0.0413412 0.000885267 -0.0025 0.5
0.0413005 0.00240409 0.0025 0.5
0.0413005 0.00240409 -0.0025 0.5
0.04133 0.00311649 -0.00153825 0.5
0.04133 0.00311649 0.00153825 0.5
0.0413919 0.00111 0.0025 0.5
0.0413919 0.00111 -0.0025 0.5
0.0413708 0.00222 0.0025 0.5
0.0413708 0.00222 -0.0025 0.5
0.04133 0.00311649 -0.0025 0.5
0.04133 0.00311649 0.0025 0.5
0.0413663 0.0035798 -0.00137479 0.5
0.0413663 0.0035798 0.00137479 0.5
0.0413912 0.00406839 -4.38369e-20 0.5
0.0413663 0.0035798 0.0025 0.5
0.0413663 0.0035798 -0.0025 0.5
0.041528 0.000411287 0.0025 0.5
0.041528 0.000411287 -0.0025 0.5
0.0416322 0.000420868 0 0.5
0.0414338 0.00333 0.0025 0.5
0.0414338 0.00333 -0.0025 0.5
0.0413965 0.00416009 0.0025 0.5
0.0413965 0.00416009 -0.0025 0.5
0.0414768 0.00498617 2.49366e-21 0.5
0.0414636 0.00478695 -0.0025 0.5
0.0414636 0.00478695 0.0025 0.5
0.0415077 0.00444 0.0025 0.5
0.0415077 0.00444 -0.0025 0.5
0.0414901 0.00517655 -0.0025 0.5
0.0414901 0.00517655 0.0025 0.5
0.0418157 0.000411287 0.0025 0.5
0.0418157 0.000411287 -0.0025 0.5
0.0415954 0.00555 0.0025 0.5
0.0415954 0.00555 -0.0025 0.5
0.0416245 0.00612835 -4.72323e-22 0.5
0.0416159 0.00604913 -0.0025 0.5
0.0416159 0.00604913 0.0025 0.5
0.0416249 0.00615188 -0.0025 0.5
0.0416249 0.00615188 0.0025 0.5
0.0416942 0.00666 0.0025 0.5
0.0416942 0.00666 -0.0025 0.5
0.0422275 0.000645076 -0.0025 0.5
0.0422275 0.000645076 0.0025 0.5
0.041804 0.00722247 -1.30619e-21 0.5
0.0417933 0.00709372 -0.0025 0.5
0.0417933 0.00709372 0.0025 0.5
0.0418157 0.00735868 -0.0025 0.5
0.0418157 0.00735868 0.0025 0.5
0.0425053 0.0002775 0.0025 0.5
0.0425053 0.0002775 -0.0025 0.5
0.0418017 0.00777 0.0025 0.5
0.0418017 0.00777 -0.0025 0.5
0.0419372 0.00815262 7.59535e-21 0.5
0.0419307 0.00806644 0.0025 0.5
0.0419307 0.00806644 -0.0025 0.5
0.0427831 0.0002775 -6.27343e-20 0.5
0.0419729 0.00862573 -0.00135462 0.5
0.0419729 0.00862573 0.00135462 0.5
0.0419136 0.00888 0.0025 0.5
0.0419136 0.00888 -0.0025 0.5
0.0419729 0.00862573 0.0025 0.5
0.0419729 0.00862573 -0.0025 0.5
0.0420357 0.00907156 0.00163712 0.5
0.0420357 0.00907156 -0.00163712 0.5
0.0420357 0.00907156 -0.0025 0.5
0.0420357 0.00907156 0.0025 0.5
0.0420596 0.009435 1.46659e-19 0.5
0.0430609 0.0002775 0.0025 0.5
0.0430609 0.0002775 -0.0025 0.5
0.0420849 0.00984757 0.00185844 0.5
0.0420849 0.00984757 -0.00185844 0.5
0.0420219 0.00999 0.0025 0.5
0.0420219 0.00999 -0.0025 0.5
0.0420849 0.00984757 0.0025 0.5
0.0420849 0.00984757 -0.0025 0.5
0.0421144 0.010103 0.00199114 0.5
0.0421144 0.010103 -0.00199114 0.5
0.0421144 0.010103 -0.0025 0.5
0.0421144 0.010103 0.0025 0.5
0.0433388 0.000555 -0.0025 0.5
0.0433388 0.000555 0.0025 0.5
0.0421385 0.010545 9.28627e-21 0.5
0.0421589 0.0111 0.0025 0.5
0.0421589 0.0111 -0.0025 0.5
0.0421855 0.0110581 -0.00231118 0.5
0.0421855 0.0110581 0.00231118 0.5
0.0421855 0.0110581 0.0025 0.5
0.0421855 0.0110581 -0.0025 0.5
0.0436166 0.0002775 0.0025 0.5
0.0436166 0.0002775 -0.0025 0.5
0.0421922 0.0111352 0.00234128 0.5
0.0421922 0.0111352 -0.00234128 0.5
0.0421922 0.0111352 0.0025 0.5
0.0421922 0.0111352 -0.0025 0.5
0.0422275 0.0113964 -0.0025 0.5
0.0422275 0.0113964 0.0025 0.5
0.0422404 0.011655 2.93989e-20 0.5
0.0438944 0.0002775 -5.5916e-20 0.5
0.0423181 0.0121195 -0.00209229 0.5
0.0423181 0.0121195 0.00209229 0.5
0.0423181 0.0121195 0.0025 0.5
0.0423181 0.0121195 -0.0025 0.5
0.0424031 0.0123854 0.00170984 0.5
0.0424031 0.0123854 -0.00170984 0.5
0.0424157 0.01221 0.0025 0.5
0.0424157 0.01221 -0.0025 0.5
0.0441722 0.0002775 0.0025 0.5
0.0441722 0.0002775 -0.0025 0.5
0.0424031 0.0123854 0.0025 0.5
0.0424031 0.0123854 -0.0025 0.5
0.0425162 0.0129326 1.30009e-20 0.5
0.04445 0.000555 0.0025 0.5
0.04445 0.000555 -0.0025 0.5
0.0425314 0.0130164 0.0025 0.5
0.0425314 0.0130164 -0.0025 0.5
0.0447278 0.0002775 0.0025 0.5
0.0447278 0.0002775 -0.0025 0.5
0.0427034 0.01332 0.0025 0.5
0.0427034 0.01332 -0.0025 0.5
0.0450056 0.0002775 0 0.5
0.0428649 0.0138598 8.38064e-23 0.5
0.0428567 0.0138015 0.0025 0.5
0.0428567 0.0138015 -0.0025 0.5
0.0428911 0.0139829 -0.0025 0.5
0.0428911 0.0139829 0.0025 0.5
0.0452834 0.0002775 0.0025 0.5
0.0452834 0.0002775 -0.0025 0.5
0.0429408 0.01443 0.0025 0.5
0.0429408 0.01443 -0.0025 0.5
0.0431017 0.0146668 0.00143351 0.5
0.0431017 0.0146668 -0.00143351 0.5
0.0431017 0.0146668 0.0025 0.5
0.0431017 0.0146668 -0.0025 0.5
0.0455612 0.000555 -0.0025 0.5
0.0455612 0.000555 0.0025 0.5
0.0431442 0.014985 -4.76614e-20 0.5
0.0431938 0.0153952 -0.00184792 0.5
0.0431938 0.0153952 0.00184792 0.5
0.0458391 0.0002775 0.0025 0.5
0.0458391 0.0002775 -0.0025 0.5
0.0431938 0.0153952 0.0025 0.5
0.0431938 0.0153952 -0.0025 0.5
0.0431478 0.01554 0.0025 0.5
0.0431478 0.01554 -0.0025 0.5
0.0432407 0.0156379 0.00205895 0.5
0.0432407 0.0156379 -0.00205895 0.5
0.0432407 0.0156379 0.0025 0.5
0.0432407 0.0156379 -0.0025 0.5
0.0461169 0.0002775 0 0.5
0.0432876 0.016095 -4.16165e-20 0.5
0.0433388 0.0161567 -0.0025 0.5
0.0433388 0.0161567 0.0025 0.5
0.0463947 0.0002775 0.0025 0.5
0.0463947 0.0002775 -0.0025 0.5
0.043408 0.0165808 -0.00218827 0.5
0.043408 0.0165808 0.00218827 0.5
0.043408 0.0165808 0.0025 0.5
0.043408 0.0165808 -0.0025 0.5
0.0434996 0.01665 0.0025 0.5
0.0434996 0.01665 -0.0025 0.5
0.0435305 0.0168415 -0.00163724 0.5
0.0435305 0.0168415 0.00163724 0.5
0.0435305 0.0168415 0.0025 0.5
0.0435305 0.0168415 -0.0025 0.5
0.0466725 0.000555 -0.0025 0.5
0.0466725 0.000555 0.0025 0.5
0.0469503 0.0002775 0.0025 0.5
0.0469503 0.0002775 -0.0025 0.5
0.0437298 0.0174145 -7.85144e-21 0.5
0.0437062 0.017393 0.0025 0.5
0.0437062 0.017393 -0.0025 0.5
0.0472281 0.0002775 -1.94461e-21 0.5
0.0439034 0.01776 0.0025 0.5
0.0439034 0.01776 -0.0025 0.5
0.0475059 0.0002775 0.0025 0.5
0.0475059 0.0002775 -0.0025 0.5
0.0441255 0.0181714 -1.08442e-19 0.5
0.04411 0.0180997 0.0025 0.5
0.04411 0.0180997 -0.0025 0.5
0.0477837 0.000555 -0.0025 0.5
0.0477837 0.000555 0.0025 0.5
0.0442078 0.018628 0.00141003 0.5
0.0442078 0.018628 -0.00141003 0.5
0.0442078 0.018628 0.0025 0.5
0.0442078 0.018628 -0.0025 0.5
0.0441846 0.01887 0.0025 0.5
0.0441846 0.01887 -0.0025 0.5
0.0480616 0.0002775 0.0025 0.5
0.0480616 0.0002775 -0.0025 0.5
0.0443139 0.019006 0.00188756 0.5
0.0443139 0.019006 -0.00188756 0.5
0.0443139 0.019006 0.0025 0.5
0.0443139 0.019006 -0.0025 0.5
0.0483394 0.0002775 0 0.5
0.0443655 0.019425 5.19138e-20 0.5
0.0486172 0.0002775 0.0025 0.5
0.0486172 0.0002775 -0.0025 0.5
0.04445 0.0197134 0.0025 0.5
0.04445 0.0197134 -0.0025 0.5
0.044489 0.0199411 -0.00232456 0.5
0.044489 0.0199411 0.00232456 0.5
0.044489 0.0199411 0.0025 0.5
0.044489 0.0199411 -0.0025 0.5
0.0445407 0.01998 0.0025 0.5
0.0445407 0.01998 -0.0025 0.5
0.0445387 0.0200686 -0.0021009 0.5
0.0445387 0.0200686 0.0021009 0.5
0.0445387 0.0200686 0.0025 0.5
0.0445387 0.0200686 -0.0025 0.5
0.048895 0.000555 -0.0025 0.5
0.048895 0.000555 0.0025 0.5
0.0491728 0.0002775 0.0025 0.5
0.0491728 0.0002775 -0.0025 0.5
0.044729 0.0207032 -1.33077e-18 0.5
0.044753 0.0207874 0.0025 0.5
0.044753 0.0207874 -0.0025 0.5
0.0494506 0.0002775 0 0.5
0.0449843 0.02109 0.0025 0.5
0.0449843 0.02109 -0.0025 0.5
0.0497284 0.0002775 0.0025 0.5
0.0497284 0.0002775 -0.0025 0.5
0.0451999 0.0214126 8.37407e-19 0.5
0.0500063 0.000555 -0.0025 0.5
0.0500063 0.000555 0.0025 0.5
0.0452266 0.0214243 0.0025 0.5
0.0452266 0.0214243 -0.0025 0.5
0.0502841 0.0002775 0.0025 0.5
0.0502841 0.0002775 -0.0025 0.5
0.0453496 0.0219886 -0.00154775 0.5
0.0453496 0.0219886 0.00154775 0.5
0.0453496 0.0219886 0.0025 0.5
0.0453496 0.0219886 -0.0025 0.5
0.045329 0.0222 -0.0025 0.5
0.045329 0.0222 0.0025 0.5
0.0505619 0.0002775 1.91847e-21 0.5
0.0454489 0.0223123 0.0019943 0.5
0.0454489 0.0223123 -0.0019943 0.5
0.0454489 0.0223123 0.0025 0.5
0.0454489 0.0223123 -0.0025 0.5
0.0455077 0.022755 1.46204e-18 0.5
0.0508397 0.0002775 0.0025 0.5
0.0508397 0.0002775 -0.0025 0.5
0.0455612 0.0229028 -0.0025 0.5
0.0455612 0.0229028 0.0025 0.5
0.0511175 0.000555 -0.0025 0.5
0.0511175 0.000555 0.0025 0.5
0.0456213 0.0232501 0.00222996 0.5
0.0456213 0.0232501 -0.00222996 0.5
0.0456213 0.0232501 0.0025 0.5
0.0456213 0.0232501 -0.0025 0.5
0.045702 0.02331 -0.0025 0.5
0.045702 0.02331 0.0025 0.5
0.0457073 0.0234559 -0.00184275 0.5
0.0457073 0.0234559 0.00184275 0.5
0.0457073 0.0234559 0.0025 0.5
0.0457073 0.0234559 -0.0025 0.5
0.0513953 0.0002775 0.0025 0.5
0.0513953 0.0002775 -0.0025 0.5
0.0516731 0.0002775 0 0.5
0.0459274 0.0240811 6.73537e-19 0.5
0.0459031 0.0240785 -0.0025 0.5
0.0459031 0.0240785 0.0025 0.5
0.0519509 0.0002775 0.0025 0.5
0.0519509 0.0002775 -0.0025 0.5
0.0461648 0.02442 0.0025 0.5
0.0461648 0.02442 -0.0025 0.5
0.0522288 0.000555 -0.0025 0.5
0.0522288 0.000555 0.0025 0.5
0.0525066 0.0002775 0.0025 0.5
0.0525066 0.0002775 -0.0025 0.5
0.0464105 0.0246817 0.00132115 0.5
0.0464105 0.0246817 -0.00132115 0.5
0.0464105 0.0246817 -0.0025 0.5
0.0464105 0.0246817 0.0025 0.5
0.0464932 0.024975 -1.55955e-18 0.5
0.0527844 0.0002775 0 0.5
0.046558 0.0254156 -0.00198459 0.5
0.046558 0.0254156 0.00198459 0.5
0.046558 0.0254156 0.0025 0.5
0.046558 0.0254156 -0.0025 0.5
0.0530622 0.0002775 0.0025 0.5
0.0530622 0.0002775 -0.0025 0.5
0.0465247 0.02553 0.0025 0.5
0.0465247 0.02553 -0.0025 0.5
0.0466047 0.0255978 0.00219474 0.5
0.0466047 0.0255978 -0.00219474 0.5
0.0466047 0.0255978 0.0025 0.5
0.0466047 0.0255978 -0.0025 0.5
0.05334 0.000555 -0.0025 0.5
0.05334 0.000555 0.0025 0.5
0.0466725 0.0259375 -0.0025 0.5
0.0466725 0.0259375 0.0025 0.5
0.04666 0.026085 -1.99776e-19 0.5
0.0536178 0.0002775 -0.0025 0.5
0.0536178 0.0002775 0.0025 0.5
0.0467761 0.0265365 -0.00203372 0.5
0.0467761 0.0265365 0.00203372 0.5
0.0467761 0.0265365 0.0025 0.5
0.0467761 0.0265365 -0.0025 0.5
0.0538956 0.0002775 0 0.5
0.0469301 0.02664 0.0025 0.5
0.0469301 0.02664 -0.0025 0.5
0.0541734 0.0002775 0.0025 0.5
0.0541734 0.0002775 -0.0025 0.5
0.0471474 0.0271143 -0.0025 0.5
0.0471474 0.0271143 0.0025 0.5
0.0471832 0.0271896 2.89121e-20 0.5
0.0544513 0.000555 -0.0025 0.5
0.0544513 0.000555 0.0025 0.5
0.0471974 0.0272257 0.0025 0.5
0.0471974 0.0272257 -0.0025 0.5
0.0547291 0.0002775 0.0025 0.5
0.0547291 0.0002775 -0.0025 0.5
0.0474136 0.02775 0.0025 0.5
0.0474136 0.02775 -0.0025 0.5
0.0550069 0.0002775 -5.58287e-21 0.5
0.0476058 0.0279278 0.00169924 0.5
0.0476058 0.0279278 -0.00169924 0.5
0.0476058 0.0279278 0.0025 0.5
0.0476058 0.0279278 -0.0025 0.5
0.0552847 0.0002775 0.0025 0.5
0.0552847 0.0002775 -0.0025 0.5
0.0476883 0.028305 1.25298e-21 0.5
0.0555625 0.000555 -0.0025 0.5
0.0555625 0.000555 0.0025 0.5
0.0477312 0.0288075 -0.00226353 0.5
0.0477312 0.0288075 0.00226353 0.5
0.0477312 0.0288075 -0.0025 0.5
0.0477312 0.0288075 0.0025 0.5
0.0477017 0.02886 0.0025 0.5
0.0477017 0.02886 -0.0025 0.5
0.0477455 0.0288982 0.00232777 0.5
0.0477455 0.0288982 -0.00232777 0.5
0.0477455 0.0288982 0.0025 0.5
0.0477455 0.0288982 -0.0025 0.5
0.0558403 0.0002775 0.0025 0.5
0.0558403 0.0002775 -0.0025 0.5
0.0477837 0.0290896 0.0025 0.5
0.0477837 0.0290896 -0.0025 0.5
0.0477832 0.029415 6.50316e-20 0.5
0.0561181 0.0002775 0 0.5
0.0563959 0.0002775 0.0025 0.5
0.0563959 0.0002775 -0.0025 0.5
0.0479064 0.0298475 -0.00194828 0.5
0.0479064 0.0298475 0.00194828 0.5
0.0479064 0.0298475 0.0025 0.5
0.0479064 0.0298475 -0.0025 0.5
0.0480986 0.02997 0.0025 0.5
0.0480986 0.02997 -0.0025 0.5
0.0566738 0.000555 -0.0025 0.5
0.0566738 0.000555 0.0025 0.5
0.0569516 0.0002775 0.0025 0.5
0.0569516 0.0002775 -0.0025 0.5
0.0572294 0.0002775 0 0.5
0.0484274 0.0304371 0.0025 0.5
0.0484274 0.0304371 -0.0025 0.5
0.0484591 0.0305303 4.19684e-21 0.5
0.0485244 0.0307098 0.0025 0.5
0.0485244 0.0307098 -0.0025 0.5
0.0575072 0.0002775 0.0025 0.5
0.0575072 0.0002775 -0.0025 0.5
0.0485948 0.03108 -0.0025 0.5
0.0485948 0.03108 0.0025 0.5
0.057785 0.000555 -0.0025 0.5
0.057785 0.000555 0.0025 0.5
0.0487527 0.0312222 0.00185968 0.5
0.0487527 0.0312222 -0.00185968 0.5
0.0487527 0.0312222 0.0025 0.5
0.0487527 0.0312222 -0.0025 0.5
0.0580628 0.0002775 0.0025 0.5
0.0580628 0.0002775 -0.0025 0.5
0.0488279 0.031635 -8.43611e-21 0.5
0.0583406 0.0002775 0 0.5
0.0488871 0.0321821 -0.00246456 0.5
0.0488871 0.0321821 0.00246456 0.5
0.0488819 0.03219 0.0025 0.5
0.0488819 0.03219 -0.0025 0.5
0.0488871 0.0321821 0.0025 0.5
0.0488871 0.0321821 -0.0025 0.5
0.0488888 0.0321962 0.00247211 0.5
0.0488888 0.0321962 -0.00247211 0.5
0.0488888 0.0321962 0.0025 0.5
0.0488888 0.0321962 -0.0025 0.5
0.048895 0.0322261 0.0025 0.5
0.048895 0.0322261 -0.0025 0.5
0.0586184 0.0002775 0.0025 0.5
0.0586184 0.0002775 -0.0025 0.5
0.0489467 0.032745 9.3926e-21 0.5
0.0588963 0.000555 -0.0025 0.5
0.0588963 0.000555 0.0025 0.5
0.0490551 0.0331401 -0.00177967 0.5
0.0490551 0.0331401 0.00177967 0.5
0.0591741 0.0002775 0.0025 0.5
0.0591741 0.0002775 -0.0025 0.5
0.0490551 0.0331401 0.0025 0.5
0.0490551 0.0331401 -0.0025 0.5
0.0594519 0.0002775 -7.45167e-21 0.5
0.0492682 0.0333 0.0025 0.5
0.0492682 0.0333 -0.0025 0.5
0.0597297 0.0002775 0.0025 0.5
0.0597297 0.0002775 -0.0025 0.5
0.0495655 0.0337403 0.0025 0.5
0.0495655 0.0337403 -0.0025 0.5
0.0495971 0.0338531 -2.17571e-21 0.5
0.0600075 0.000555 -0.0025 0.5
0.0600075 0.000555 0.0025 0.5
0.0496638 0.034068 0.0025 0.5
0.0496638 0.034068 -0.0025 0.5
0.0602853 0.0002775 0.0025 0.5
0.0602853 0.0002775 -0.0025 0.5
0.0496974 0.03441 0.0025 0.5
0.0496974 0.03441 -0.0025 0.5
0.0605631 0.0002775 -9.93434e-23 0.5
0.0498508 0.0345653 0.00180035 0.5
0.0498508 0.0345653 -0.00180035 0.5
0.0498508 0.0345653 0.0025 0.5
0.0498508 0.0345653 -0.0025 0.5
0.0608409 0.0002775 0.0025 0.5
0.0608409 0.0002775 -0.0025 0.5
0.049914 0.034965 0 0.5
0.0611187 0.000555 -0.0025 0.5
0.0611187 0.000555 0.0025 0.5
0.0499551 0.0354689 -0.00226997 0.5
0.0499551 0.0354689 0.00226997 0.5
0.0499551 0.0354689 0.0025 0.5
0.0499551 0.0354689 -0.0025 0.5
0.0499257 0.03552 0.0025 0.5
0.0499257 0.03552 -0.0025 0.5
0.0499685 0.0355577 0.00233025 0.5
0.0499685 0.0355577 -0.00233025 0.5
0.0499685 0.0355577 0.0025 0.5
0.0499685 0.0355577 -0.0025 0.5
0.0613966 0.0002775 -0.0025 0.5
0.0613966 0.0002775 0.0025 0.5
0.0500063 0.0359365 -0.0025 0.5
0.0500063 0.0359365 0.0025 0.5
0.0500048 0.036075 0 0.5
0.0616744 0.0002775 0 0.5
0.0619522 0.0002775 -0.0025 0.5
0.0619522 0.0002775 0.0025 0.5
0.0500661 0.0365702 -0.00223077 0.5
0.0500661 0.0365702 0.00223077 0.5
0.0500661 0.0365702 0.0025 0.5
0.0500661 0.0365702 -0.0025 0.5
0.0501405 0.03663 0.0025 0.5
0.0501405 0.03663 -0.0025 0.5
0.0501122 0.0367358 -0.00202323 0.5
0.0501122 0.0367358 0.00202323 0.5
0.0501122 0.0367358 0.0025 0.5
0.0501122 0.0367358 -0.0025 0.5
0.06223 0.000555 -0.0025 0.5
0.06223 0.000555 0.0025 0.5
0.0501855 0.037185 0 0.5
0.0625078 0.0002775 0.0025 0.5
0.0625078 0.0002775 -0.0025 0.5
0.0502657 0.0374808 -0.00133244 0.5
0.0502657 0.0374808 0.00133244 0.5
0.0502657 0.0374808 -0.0025 0.5
0.0502657 0.0374808 0.0025 0.5
0.0627856 0.0002775 3.76374e-21 0.5
0.050505 0.03774 0.0025 0.5
0.050505 0.03774 -0.0025 0.5
0.0630634 0.0002775 -0.0025 0.5
0.0630634 0.0002775 0.0025 0.5
0.0633413 0.000555 -0.0025 0.5
0.0633413 0.000555 0.0025 0.5
0.050738 0.0380932 -3.65662e-21 0.5
0.0507607 0.0380964 0.0025 0.5
0.0507607 0.0380964 -0.0025 0.5
0.0636191 0.0002775 0.0025 0.5
0.0636191 0.0002775 -0.0025 0.5
0.0508805 0.0386132 -0.00143349 0.5
0.0508805 0.0386132 0.00143349 0.5
0.0638969 0.0002775 -5.95927e-22 0.5
0.0508805 0.0386132 0.0025 0.5
0.0508805 0.0386132 -0.0025 0.5
0.0508635 0.03885 0.0025 0.5
0.0508635 0.03885 -0.0025 0.5
0.0509914 0.038976 0.0019324 0.5
0.0509914 0.038976 -0.0019324 0.5
0.0641747 0.0002775 0.0025 0.5
0.0641747 0.0002775 -0.0025 0.5
0.0509914 0.038976 0.0025 0.5
0.0509914 0.038976 -0.0025 0.5
0.0510482 0.039405 0 0.5
0.0644525 0.000555 -0.0025 0.5
0.0644525 0.000555 0.0025 0.5
0.0647303 0.0002775 0.0025 0.5
0.0647303 0.0002775 -0.0025 0.5
0.0510789 0.0399214 -0.00232615 0.5
0.0510789 0.0399214 0.00232615 0.5
0.0510789 0.0399214 0.0025 0.5
0.0510789 0.0399214 -0.0025 0.5
0.0510529 0.03996 0.0025 0.5
0.0510529 0.03996 -0.0025 0.5
0.0510866 0.0399908 0.00236113 0.5
0.0510866 0.0399908 -0.00236113 0.5
0.0510866 0.0399908 0.0025 0.5
0.0510866 0.0399908 -0.0025 0.5
0.0650081 0.0002775 0 0.5
0.0511144 0.040515 -2.1277e-20 0.5
0.0652859 0.0002775 0.0025 0.5
0.0652859 0.0002775 -0.0025 0.5
0.0655638 0.000555 -0.0025 0.5
0.0655638 0.000555 0.0025 0.5
0.051116 0.0410685 -0.00249309 0.5
0.051116 0.0410685 0.00249309 0.5
0.0511145 0.04107 0.0025 0.5
0.0511145 0.04107 -0.0025 0.5
0.051116 0.0410685 0.0025 0.5
0.051116 0.0410685 -0.0025 0.5
0.051116 0.0410715 0.00249316 0.5
0.051116 0.0410715 -0.00249316 0.5
0.051116 0.0410715 0.0025 0.5
0.051116 0.0410715 -0.0025 0.5
0.0511175 0.0410867 -0.0025 0.5
0.0511175 0.0410867 0.0025 0.5
0.0658416 0.0002775 0.0025 0.5
0.0658416 0.0002775 -0.0025 0.5
0.0511175 0.041625 2.48412e-20 0.5
0.0661194 0.0002775 -1.81913e-21 0.5
0.0512022 0.0420954 -0.00211886 0.5
0.0512022 0.0420954 0.00211886 0.5
0.0512022 0.0420954 -0.0025 0.5
0.0512022 0.0420954 0.0025 0.5
0.0663972 0.0002775 0.0025 0.5
0.0663972 0.0002775 -0.0025 0.5
0.0513174 0.04218 0.0025 0.5
0.0513174 0.04218 -0.0025 0.5
0.0513346 0.0423969 -0.00152316 0.5
0.0513346 0.0423969 0.00152316 0.5
0.0513346 0.0423969 0.0025 0.5
0.0513346 0.0423969 -0.0025 0.5
0.066675 0.000555 -0.0025 0.5
0.066675 0.000555 0.0025 0.5
0.0514557 0.0428711 0 0.5
0.0669528 0.0002775 0.0025 0.5
0.0669528 0.0002775 -0.0025 0.5
0.0514688 0.0429391 0.0025 0.5
0.0514688 0.0429391 -0.0025 0.5
0.0672306 0.0002775 9.10876e-20 0.5
0.0516532 0.04329 0.0025 0.5
0.0516532 0.04329 -0.0025 0.5
0.0675084 0.0002775 0.0025 0.5
0.0675084 0.0002775 -0.0025 0.5
0.0518327 0.0436856 -0.0025 0.5
0.0518327 0.0436856 0.0025 0.5
0.0677863 0.000555 -0.0025 0.5
0.0677863 0.000555 0.0025 0.5
0.0518465 0.043808 -8.56357e-20 0.5
0.0680641 0.0002775 0.0025 0.5
0.0680641 0.0002775 -0.0025 0.5
0.0518921 0.0440637 0.0025 0.5
0.0518921 0.0440637 -0.0025 0.5
0.0518721 0.0444 0.0025 0.5
0.0518721 0.0444 -0.0025 0.5
0.0683419 0.0002775 1.14121e-19 0.5
0.0520135 0.044615 0.00153148 0.5
0.0520135 0.044615 -0.00153148 0.5
0.0520135 0.044615 0.0025 0.5
0.0520135 0.044615 -0.0025 0.5
0.0686197 0.0002775 0.0025 0.5
0.0686197 0.0002775 -0.0025 0.5
0.0520472 0.044955 0 0.5
0.0688975 0.000555 -0.0025 0.5
0.0688975 0.000555 0.0025 0.5
0.0520722 0.0453536 -0.00179555 0.5
0.0520722 0.0453536 0.00179555 0.5
0.0520722 0.0453536 0.0025 0.5
0.0520722 0.0453536 -0.0025 0.5
0.0520075 0.04551 0.0025 0.5
0.0520075 0.04551 -0.0025 0.5
0.0691753 0.0002775 0.0025 0.5
0.0691753 0.0002775 -0.0025 0.5
0.0521052 0.0456334 0.00194392 0.5
0.0521052 0.0456334 -0.00194392 0.5
0.0521052 0.0456334 0.0025 0.5
0.0521052 0.0456334 -0.0025 0.5
0.0694531 0.0002775 9.36031e-20 0.5
0.0521292 0.046065 0 0.5
0.0697309 0.0002775 0.0025 0.5
0.0697309 0.0002775 -0.0025 0.5
0.0521443 0.0465357 -0.0021201 0.5
0.0521443 0.0465357 0.0021201 0.5
0.0521443 0.0465357 0.0025 0.5
0.0521443 0.0465357 -0.0025 0.5
0.0520901 0.04662 0.0025 0.5
0.0520901 0.04662 -0.0025 0.5
0.0521542 0.0466945 0.00216464 0.5
0.0521542 0.0466945 -0.00216464 0.5
0.0521542 0.0466945 0.0025 0.5
0.0521542 0.0466945 -0.0025 0.5
0.0700088 0.000555 -0.0025 0.5
0.0700088 0.000555 0.0025 0.5
0.0702866 0.0002775 0.0025 0.5
0.0702866 0.0002775 -0.0025 0.5
0.0521687 0.047175 0 0.5
0.0705644 0.0002775 2.66209e-19 0.5
0.0521771 0.0476784 -0.00226742 0.5
0.0521771 0.0476784 0.00226742 0.5
0.0521771 0.0476784 0.0025 0.5
0.0521771 0.0476784 -0.0025 0.5
0.052137 0.04773 0.0025 0.5
0.052137 0.04773 -0.0025 0.5
0.0521803 0.0477784 0.00228205 0.5
0.0521803 0.0477784 -0.00228205 0.5
0.0521803 0.0477784 0.0025 0.5
0.0521803 0.0477784 -0.0025 0.5
0.0708422 0.0002775 0.0025 0.5
0.0708422 0.0002775 -0.0025 0.5
0.0521884 0.048285 -9.9741e-20 0.5
0.07112 0.000555 -0.0025 0.5
0.07112 0.000555 0.0025 0.5
0.0713978 0.0002775 0.0025 0.5
0.0713978 0.0002775 -0.0025 0.5
0.0521928 0.048804 0.00233806 0.5
0.0521928 0.048804 -0.00233806 0.5
0.0521928 0.048804 0.0025 0.5
0.0521928 0.048804 -0.0025 0.5
0.0521622 0.04884 0.0025 0.5
0.0521622 0.04884 -0.0025 0.5
0.0521939 0.0488748 0.00234334 0.5
0.0521939 0.0488748 -0.00234334 0.5
0.0521939 0.0488748 0.0025 0.5
0.0521939 0.0488748 -0.0025 0.5
0.0716756 0.0002775 9.36031e-20 0.5
0.0521982 0.049395 2.84616e-21 0.5
0.0719534 0.0002775 0.0025 0.5
0.0719534 0.0002775 -0.0025 0.5
0.0522005 0.0499218 -0.00237299 0.5
0.0522005 0.0499218 0.00237299 0.5
0.0522005 0.0499218 0.0025 0.5
0.0522005 0.0499218 -0.0025 0.5
0.0521755 0.04995 0.0025 0.5
0.0521755 0.04995 -0.0025 0.5
0.0722313 0.000555 -0.0025 0.5
0.0722313 0.000555 0.0025 0.5
0.052201 0.0499777 0.00237518 0.5
0.052201 0.0499777 -0.00237518 0.5
0.052201 0.0499777 0.0025 0.5
0.052201 0.0499777 -0.0025 0.5
0.0725091 0.0002775 0.0025 0.5
0.0725091 0.0002775 -0.0025 0.5
0.0522033 0.050505 8.6192e-20 0.5
0.0727869 0.0002775 1.145e-19 0.5
0.0522041 0.0510354 -0.0023892 0.5
0.0522041 0.0510354 0.0023892 0.5
0.0522041 0.0510354 0.0025 0.5
0.0522041 0.0510354 -0.0025 0.5
0.0521817 0.05106 -0.0025 0.5
0.0521817 0.05106 0.0025 0.5
0.0522043 0.0510844 -0.00238989 0.5
0.0522043 0.0510844 0.00238989 0.5
0.0522043 0.0510844 -0.0025 0.5
0.0522043 0.0510844 0.0025 0.5
0.0730647 0.0002775 0.0025 0.5
0.0730647 0.0002775 -0.0025 0.5
0.0733425 0.000555 -0.0025 0.5
0.0733425 0.000555 0.0025 0.5
0.0522051 0.051615 1.77525e-19 0.5
0.0736203 0.0002775 0.0025 0.5
0.0736203 0.0002775 -0.0025 0.5
0.0522053 0.0521466 -0.00239464 0.5
0.0522053 0.0521466 0.00239464 0.5
0.0522053 0.0521466 0.0025 0.5
0.0522053 0.0521466 -0.0025 0.5
0.0521838 0.05217 0.0025 0.5
0.0521838 0.05217 -0.0025 0.5
0.0522054 0.0521933 0.00239482 0.5
0.0522054 0.0521933 -0.00239482 0.5
0.0522054 0.0521933 0.0025 0.5
0.0522054 0.0521933 -0.0025 0.5
0.0738981 0.0002775 1.12679e-19 0.5
0.0522056 0.052725 4.75414e-20 0.5
0.0741759 0.0002775 0.0025 0.5
0.0741759 0.0002775 -0.0025 0.5
0.0744538 0.000555 -0.0025 0.5
0.0744538 0.000555 0.0025 0.5
0.0522053 0.0532566 -0.00239471 0.5
0.0522053 0.0532566 0.00239471 0.5
0.0522053 0.0532566 0.0025 0.5
0.0522053 0.0532566 -0.0025 0.5
0.0521838 0.05328 0.0025 0.5
0.0521838 0.05328 -0.0025 0.5
0.0522053 0.0533034 -0.0023945 0.5
0.0522053 0.0533034 0.0023945 0.5
0.0522053 0.0533034 -0.0025 0.5
0.0522053 0.0533034 0.0025 0.5
0.0747316 0.0002775 0.0025 0.5
0.0747316 0.0002775 -0.0025 0.5
0.052205 0.053835 -3.86021e-18 0.5
0.0750094 0.0002775 1.14375e-19 0.5
0.0752872 0.0002775 0.0025 0.5
0.0752872 0.0002775 -0.0025 0.5
0.0522042 0.0543655 0.00238971 0.5
0.0522042 0.0543655 -0.00238971 0.5
0.0522042 0.0543655 0.0025 0.5
0.0522042 0.0543655 -0.0025 0.5
0.0521817 0.05439 0.0025 0.5
0.0521817 0.05439 -0.0025 0.5
0.0522041 0.0544146 0.00238903 0.5
0.0522041 0.0544146 -0.00238903 0.5
0.0522041 0.0544146 0.0025 0.5
0.0522041 0.0544146 -0.0025 0.5
0.075565 0.000555 -0.0025 0.5
0.075565 0.000555 0.0025 0.5
0.0522033 0.054945 3.9196e-18 0.5
0.0758428 0.0002775 0.0025 0.5
0.0758428 0.0002775 -0.0025 0.5
0.0761206 0.0002775 1.14623e-19 0.5
0.0522018 0.055473 -0.00237856 0.5
0.0522018 0.055473 0.00237856 0.5
0.0522018 0.055473 0.0025 0.5
0.0522018 0.055473 -0.0025 0.5
0.052177 0.0555 -0.0025 0.5
0.052177 0.0555 0.0025 0.5
0.0522014 0.0555273 0.00237715 0.5
0.0522014 0.0555273 -0.00237715 0.5
0.0522014 0.0555273 0.0025 0.5
0.0522014 0.0555273 -0.0025 0.5
0.0763984 0.0002775 0.0025 0.5
0.0763984 0.0002775 -0.0025 0.5
0.0521999 0.056055 2.35523e-20 0.5
0.0766763 0.000555 -0.0025 0.5
0.0766763 0.000555 0.0025 0.5
0.0769541 0.0002775 0.0025 0.5
0.0769541 0.0002775 -0.0025 0.5
0.0521975 0.0565788 -0.00235926 0.5
0.0521975 0.0565788 0.00235926 0.5
0.0521975 0.0565788 0.0025 0.5
0.0521975 0.0565788 -0.0025 0.5
0.052169 0.05661 0.0025 0.5
0.052169 0.05661 -0.0025 0.5
0.0521969 0.0566418 0.00235659 0.5
0.0521969 0.0566418 -0.00235659 0.5
0.0521969 0.0566418 0.0025 0.5
0.0521969 0.0566418 -0.0025 0.5
0.0772319 0.0002775 1.08196e-19 0.5
0.0521944 0.057165 -2.72469e-18 0.5
0.0775097 0.0002775 0.0025 0.5
0.0775097 0.0002775 -0.0025 0.5
0.0521899 0.0576812 0.00232514 0.5
0.0521899 0.0576812 -0.00232514 0.5
0.0521899 0.0576812 0.0025 0.5
0.0521899 0.0576812 -0.0025 0.5
0.0777875 0.000555 -0.0025 0.5
0.0777875 0.000555 0.0025 0.5
0.0521549 0.05772 0.0025 0.5
0.0521549 0.05772 -0.0025 0.5
0.0521885 0.0577602 0.00231886 0.5
0.0521885 0.0577602 -0.00231886 0.5
0.0521885 0.0577602 0.0025 0.5
0.0521885 0.0577602 -0.0025 0.5
0.0780653 0.0002775 0.0025 0.5
0.0780653 0.0002775 -0.0025 0.5
0.0521839 0.058275 3.74127e-19 0.5
0.0783431 0.0002775 8.26565e-20 0.5
0.0521774 0.0587787 -0.00226911 0.5
0.0521774 0.0587787 0.00226911 0.5
0.0521774 0.0587787 0.0025 0.5
0.0521774 0.0587787 -0.0025 0.5
0.0521326 0.05883 0.0025 0.5
0.0521326 0.05883 -0.0025 0.5
0.0786209 0.0002775 0.0025 0.5
0.0786209 0.0002775 -0.0025 0.5
0.0521747 0.058884 -0.00225678 0.5
0.0521747 0.058884 0.00225678 0.5
0.0521747 0.058884 -0.0025 0.5
0.0521747 0.058884 0.0025 0.5
0.0788988 0.000555 -0.0025 0.5
0.0788988 0.000555 0.0025 0.5
0.0521681 0.059385 2.3062e-18 0.5
0.0791766 0.0002775 0.0025 0.5
0.0791766 0.0002775 -0.0025 0.5
0.0521596 0.0598709 0.00218887 0.5
0.0521596 0.0598709 -0.00218887 0.5
0.0521596 0.0598709 0.0025 0.5
0.0521596 0.0598709 -0.0025 0.5
0.0794544 0.0002775 9.54222e-20 0.5
0.0521019 0.05994 0.0025 0.5
0.0521019 0.05994 -0.0025 0.5
0.0521545 0.0600142 -0.00216596 0.5
0.0521545 0.0600142 0.00216596 0.5
0.0521545 0.0600142 -0.0025 0.5
0.0521545 0.0600142 0.0025 0.5
0.0797322 0.0002775 0.0025 0.5
0.0797322 0.0002775 -0.0025 0.5
0.0521458 0.060495 5.19942e-19 0.5
0.08001 0.000555 -0.0025 0.5
0.08001 0.000555 0.0025 0.5
0.052136 0.0609573 -0.00208246 0.5
0.052136 0.0609573 0.00208246 0.5
0.052136 0.0609573 0.0025 0.5
0.052136 0.0609573 -0.0025 0.5
0.0520638 0.06105 0.0025 0.5
0.0520638 0.06105 -0.0025 0.5
0.0802878 0.0002775 0.0025 0.5
0.0802878 0.0002775 -0.0025 0.5
0.0521275 0.0611511 0.00204446 0.5
0.0521275 0.0611511 -0.00204446 0.5
0.0521275 0.0611511 0.0025 0.5
0.0521275 0.0611511 -0.0025 0.5
0.0805656 0.0002775 1.15842e-19 0.5
0.0521174 0.061605 -9.79651e-19 0.5
0.0808434 0.0002775 0.0025 0.5
0.0808434 0.0002775 -0.0025 0.5
0.0521074 0.0620388 0.00195412 0.5
0.0521074 0.0620388 -0.00195412 0.5
0.0521074 0.0620388 0.0025 0.5
0.0521074 0.0620388 -0.0025 0.5
0.052022 0.06216 0.0025 0.5
0.052022 0.06216 -0.0025 0.5
0.0811213 0.000555 -0.0025 0.5
0.0811213 0.000555 0.0025 0.5
0.0520955 0.0622931 0.00190029 0.5
0.0520955 0.0622931 -0.00190029 0.5
0.0520955 0.0622931 0.0025 0.5
0.0520955 0.0622931 -0.0025 0.5
0.0813991 0.0002775 0.0025 0.5
0.0813991 0.0002775 -0.0025 0.5
0.0520853 0.062715 -1.84279e-20 0.5
0.0816769 0.0002775 9.5745e-20 0.5
0.0520762 0.0631176 -0.00181359 0.5
0.0520762 0.0631176 0.00181359 0.5
0.0520762 0.0631176 0.0025 0.5
0.0520762 0.0631176 -0.0025 0.5
0.0519808 0.06327 0.0025 0.5
0.0519808 0.06327 -0.0025 0.5
0.0819547 0.0002775 0.0025 0.5
0.0819547 0.0002775 -0.0025 0.5
0.0520614 0.0634372 0.00174702 0.5
0.0520614 0.0634372 -0.00174702 0.5
0.0520614 0.0634372 0.0025 0.5
0.0520614 0.0634372 -0.0025 0.5
0.0822325 0.000555 -0.0025 0.5
0.0822325 0.000555 0.0025 0.5
0.0520522 0.063825 0 0.5
0.0825103 0.0002775 0.0025 0.5
0.0825103 0.0002775 -0.0025 0.5
0.0520444 0.0641959 -0.00167068 0.5
0.0520444 0.0641959 0.00167068 0.5
0.0520444 0.0641959 0.0025 0.5
0.0520444 0.0641959 -0.0025 0.5
0.0519431 0.06438 0.0025 0.5
0.0519431 0.06438 -0.0025 0.5
0.0827881 0.0002775 8.32524e-20 0.5
0.052028 0.0645806 0.00159653 0.5
0.052028 0.0645806 -0.00159653 0.5
0.052028 0.0645806 0.0025 0.5
0.052028 0.0645806 -0.0025 0.5
0.0830659 0.0002775 0.0025 0.5
0.0830659 0.0002775 -0.0025 0.5
0.0520202 0.064935 0 0.5
0.0833437 0.000555 -0.0025 0.5
0.0833437 0.000555 0.0025 0.5
0.0520263 0.0652878 -0.00158903 0.5
0.0520263 0.0652878 0.00158903 0.5
0.0520263 0.0652878 0.0025 0.5
0.0520263 0.0652878 -0.0025 0.5
0.0519394 0.06549 0.0025 0.5
0.0519394 0.06549 -0.0025 0.5
0.0836216 0.0002775 0.0025 0.5
0.0836216 0.0002775 -0.0025 0.5
0.0520396 0.065679 0.00164878 0.5
0.0520396 0.065679 -0.00164878 0.5
0.0520396 0.065679 0.0025 0.5
0.0520396 0.065679 -0.0025 0.5
0.0838994 0.0002775 3.228e-22 0.5
0.0522288 0.0657193 -0.0025 0.5
0.0522288 0.0657193 0.0025 0.5
0.0520457 0.066045 0 0.5
0.0841772 0.0002775 0.0025 0.5
0.0841772 0.0002775 -0.0025 0.5
0.084455 0.000555 -0.0025 0.5
0.084455 0.000555 0.0025 0.5
0.0525066 0.0663225 0.0025 0.5
0.0525066 0.0663225 -0.0025 0.5
0.0527844 0.0663225 0 0.5
0.0847328 0.0002775 0.0025 0.5
0.0847328 0.0002775 -0.0025 0.5
0.05334 0.066045 -0.0025 0.5
0.05334 0.066045 0.0025 0.5
0.0530622 0.0663225 0.0025 0.5
0.0530622 0.0663225 -0.0025 0.5
0.0850106 0.0002775 0 0.5
0.0536178 0.0663225 0.0025 0.5
0.0536178 0.0663225 -0.0025 0.5
0.0852884 0.0002775 0.0025 0.5
0.0852884 0.0002775 -0.0025 0.5
0.0538956 0.0663225 0 0.5
0.0855663 0.000555 -0.0025 0.5
0.0855663 0.000555 0.0025 0.5
0.0544513 0.066045 -0.0025 0.5
0.0544513 0.066045 0.0025 0.5
0.0541734 0.0663225 0.0025 0.5
0.0541734 0.0663225 -0.0025 0.5
0.0858441 0.0002775 0.0025 0.5
0.0858441 0.0002775 -0.0025 0.5
0.0547291 0.0663225 0.0025 0.5
0.0547291 0.0663225 -0.0025 0.5
0.0861219 0.0002775 0 0.5
0.0550069 0.0663225 0 0.5
0.0555625 0.066045 -0.0025 0.5
0.0555625 0.066045 0.0025 0.5
0.0552847 0.0663225 0.0025 0.5
0.0552847 0.0663225 -0.0025 0.5
0.0863997 0.0002775 0.0025 0.5
0.0863997 0.0002775 -0.0025 0.5
0.0866775 0.000555 -0.0025 0.5
0.0866775 0.000555 0.0025 0.5
0.0558403 0.0663225 0.0025 0.5
0.0558403 0.0663225 -0.0025 0.5
0.0561181 0.0663225 0 0.5
0.0869553 0.0002775 0.0025 0.5
0.0869553 0.0002775 -0.0025 0.5
0.0566738 0.066045 -0.0025 0.5
0.0566738 0.066045 0.0025 0.5
0.0563959 0.0663225 0.0025 0.5
0.0563959 0.0663225 -0.0025 0.5
0.0872331 0.0002775 0 0.5
0.0569516 0.0663225 0.0025 0.5
0.0569516 0.0663225 -0.0025 0.5