# f_l  POINT_DATA 1494
#  x  y  z  f_l
0.0468541 0.001665 -3.14188e-20 0.5
0.0468786 0.0013159 -0.00157252 0.5
0.0468786 0.0013159 0.00157252 0.5
0.0468686 0.00202409 -0.00161751 0.5
0.0468686 0.00202409 0.00161751 0.5
0.0468786 0.0013159 0.0025 0.5
0.0468786 0.0013159 -0.0025 0.5
0.0469482 0.000834593 -0.00125943 0.5
0.0469482 0.000834593 0.00125943 0.5
0.0468686 0.00202409 0.0025 0.5
0.0468686 0.00202409 -0.0025 0.5
0.0468957 0.00244299 -0.00149552 0.5
0.0468957 0.00244299 0.00149552 0.5
0.0469098 0.002775 0 0.5
0.0469482 0.000834593 0.0025 0.5
0.0469482 0.000834593 -0.0025 0.5
0.0468957 0.00244299 0.0025 0.5
0.0468957 0.00244299 -0.0025 0.5
0.0469251 0.00307764 -0.00136326 0.5
0.0469251 0.00307764 0.00136326 0.5
0.0469724 0.00111 0.0025 0.5
0.0469724 0.00111 -0.0025 0.5
0.0469488 0.00222 0.0025 0.5
0.0469488 0.00222 -0.0025 0.5
0.0469251 0.00307764 -0.0025 0.5
0.0469251 0.00307764 0.0025 0.5
0.0469849 0.00387525 1.35657e-21 0.5
0.0469705 0.0036277 0.0025 0.5
0.0469705 0.0036277 -0.0025 0.5
0.0471169 0.000443858 0.0025 0.5
0.0471169 0.000443858 -0.0025 0.5
0.0470112 0.00333 0.0025 0.5
0.0470112 0.00333 -0.0025 0.5
0.0471961 0.000451267 -4.87924e-21 0.5
0.0469998 0.00411305 0.0025 0.5
0.0469998 0.00411305 -0.0025 0.5
0.0470942 0.00498783 1.90906e-21 0.5
0.0470861 0.00444 0.0025 0.5
0.0470861 0.00444 -0.0025 0.5
0.0470835 0.00485051 0.0025 0.5
0.0470835 0.00485051 -0.0025 0.5
0.0473394 0.000443858 0.0025 0.5
0.0473394 0.000443858 -0.0025 0.5
0.047105 0.00511797 0.0025 0.5
0.047105 0.00511797 -0.0025 0.5
0.0471756 0.00555 0.0025 0.5
0.0471756 0.00555 -0.0025 0.5
0.0472536 0.00609024 3.80738e-20 0.5
0.0472536 0.00607956 0.0025 0.5
0.0472536 0.00607956 -0.0025 0.5
0.047258 0.00613482 0.0025 0.5
0.047258 0.00613482 -0.0025 0.5
0.0472776 0.00666 0.0025 0.5
0.0472776 0.00666 -0.0025 0.5
0.0477837 0.000665808 -0.0025 0.5
0.0477837 0.000665808 0.0025 0.5
0.0474141 0.0072245 -1.12071e-19 0.5
0.0474004 0.00704293 0.0025 0.5
0.0474004 0.00704293 -0.0025 0.5
0.0474289 0.00741557 0.0025 0.5
0.0474289 0.00741557 -0.0025 0.5
0.0473877 0.00777 0.0025 0.5
0.0473877 0.00777 -0.0025 0.5
0.0480616 0.0002775 0.0025 0.5
0.0480616 0.0002775 -0.0025 0.5
0.0475203 0.00803319 0.00131446 0.5
0.0475203 0.00803319 -0.00131446 0.5
0.0475203 0.00803319 0.0025 0.5
0.0475203 0.00803319 -0.0025 0.5
0.0475404 0.008325 -9.1241e-20 0.5
0.0483394 0.0002775 0 0.5
0.047564 0.00866054 0.00151143 0.5
0.047564 0.00866054 -0.00151143 0.5
0.0474991 0.00888 0.0025 0.5
0.0474991 0.00888 -0.0025 0.5
0.047564 0.00866054 -0.0025 0.5
0.047564 0.00866054 0.0025 0.5
0.0476152 0.00904838 0.00174154 0.5
0.0476152 0.00904838 -0.00174154 0.5
0.0476152 0.00904838 0.0025 0.5
0.0476152 0.00904838 -0.0025 0.5
0.0476391 0.009435 1.3943e-20 0.5
0.0486172 0.0002775 0.0025 0.5
0.0486172 0.0002775 -0.0025 0.5
0.0476031 0.00999 0.0025 0.5
0.0476031 0.00999 -0.0025 0.5
0.0476632 0.00986963 -0.00195778 0.5
0.0476632 0.00986963 0.00195778 0.5
0.0476632 0.00986963 -0.0025 0.5
0.0476632 0.00986963 0.0025 0.5
0.0476862 0.0100875 0.00206095 0.5
0.0476862 0.0100875 -0.00206095 0.5
0.0476862 0.0100875 0.0025 0.5
0.0476862 0.0100875 -0.0025 0.5
0.047709 0.010545 1.28904e-19 0.5
0.048895 0.000555 -0.0025 0.5
0.048895 0.000555 0.0025 0.5
0.0477838 0.0109881 -0.0025 0.5
0.0477838 0.0109881 0.0025 0.5
0.0477937 0.0110901 -0.00245526 0.5
0.0477937 0.0110901 0.00245526 0.5
0.0477937 0.0110901 0.0025 0.5
0.0477937 0.0110901 -0.0025 0.5
0.047801 0.0111172 -0.00242231 0.5
0.047801 0.0111172 0.00242231 0.5
0.047801 0.0111172 0.0025 0.5
0.047801 0.0111172 -0.0025 0.5
0.047806 0.0111 0.0025 0.5
0.047806 0.0111 -0.0025 0.5
0.0491728 0.0002775 0.0025 0.5
0.0491728 0.0002775 -0.0025 0.5
0.0479028 0.011655 9.14061e-21 0.5
0.0494506 0.0002775 0 0.5
0.0479646 0.0120293 -0.00168606 0.5
0.0479646 0.0120293 0.00168606 0.5
0.0479646 0.0120293 0.0025 0.5
0.0479646 0.0120293 -0.0025 0.5
0.0481015 0.01221 0.0025 0.5
0.0481015 0.01221 -0.0025 0.5
0.0497284 0.0002775 0.0025 0.5
0.0497284 0.0002775 -0.0025 0.5
0.0481258 0.0125517 0.0025 0.5
0.0481258 0.0125517 -0.0025 0.5
0.0481808 0.0127976 2.09653e-19 0.5
0.0481977 0.0129065 0.0025 0.5
0.0481977 0.0129065 -0.0025 0.5
0.0500063 0.000555 -0.0025 0.5
0.0500063 0.000555 0.0025 0.5
0.0483457 0.01332 -0.0025 0.5
0.0483457 0.01332 0.0025 0.5
0.0502841 0.0002775 0.0025 0.5
0.0502841 0.0002775 -0.0025 0.5
0.0485088 0.0137058 0.0025 0.5
0.0485088 0.0137058 -0.0025 0.5
0.0485378 0.013895 -4.19531e-19 0.5
0.0505619 0.0002775 1.91847e-21 0.5
0.048569 0.0141043 0.0025 0.5
0.048569 0.0141043 -0.0025 0.5
0.0485563 0.01443 0.0025 0.5
0.0485563 0.01443 -0.0025 0.5
0.0487006 0.0146242 -0.00162528 0.5
0.0487006 0.0146242 0.00162528 0.5
0.0508397 0.0002775 0.0025 0.5
0.0508397 0.0002775 -0.0025 0.5
0.0487006 0.0146242 -0.0025 0.5
0.0487006 0.0146242 0.0025 0.5
0.0487411 0.014985 1.85272e-20 0.5
0.0511175 0.000555 -0.0025 0.5
0.0511175 0.000555 0.0025 0.5
0.0487796 0.0154247 -0.00198071 0.5
0.0487796 0.0154247 0.00198071 0.5
0.04873 0.01554 0.0025 0.5
0.04873 0.01554 -0.0025 0.5
0.0487796 0.0154247 0.0025 0.5
0.0487796 0.0154247 -0.0025 0.5
0.0488115 0.0156234 0.00212444 0.5
0.0488115 0.0156234 -0.00212444 0.5
0.0488115 0.0156234 0.0025 0.5
0.0488115 0.0156234 -0.0025 0.5
0.0488466 0.016095 -6.14927e-20 0.5
0.0513953 0.0002775 0.0025 0.5
0.0513953 0.0002775 -0.0025 0.5
0.048895 0.0161453 -0.0025 0.5
0.048895 0.0161453 0.0025 0.5
0.0516731 0.0002775 0 0.5
0.0489562 0.0165889 -0.00222461 0.5
0.0489562 0.0165889 0.00222461 0.5
0.0489562 0.0165889 0.0025 0.5
0.0489562 0.0165889 -0.0025 0.5
0.0490393 0.01665 0.0025 0.5
0.0490393 0.01665 -0.0025 0.5
0.0490504 0.0168052 -0.00180091 0.5
0.0490504 0.0168052 0.00180091 0.5
0.0490504 0.0168052 0.0025 0.5
0.0490504 0.0168052 -0.0025 0.5
0.0519509 0.0002775 0.0025 0.5
0.0519509 0.0002775 -0.0025 0.5
0.0492102 0.0173539 0 0.5
0.049227 0.0174284 0.0025 0.5
0.049227 0.0174284 -0.0025 0.5
0.0522288 0.000555 -0.0025 0.5
0.0522288 0.000555 0.0025 0.5
0.0525066 0.0002775 0.0025 0.5
0.0525066 0.0002775 -0.0025 0.5
0.0494246 0.01776 0.0025 0.5
0.0494246 0.01776 -0.0025 0.5
0.0527844 0.0002775 0 0.5
0.0496254 0.0181404 0.0025 0.5
0.0496254 0.0181404 -0.0025 0.5
0.0496468 0.0182826 0 0.5
0.0530622 0.0002775 0.0025 0.5
0.0530622 0.0002775 -0.0025 0.5
0.0497101 0.0185742 0.0025 0.5
0.0497101 0.0185742 -0.0025 0.5
0.0497036 0.01887 0.0025 0.5
0.0497036 0.01887 -0.0025 0.5
0.049846 0.0190301 0.00177884 0.5
0.049846 0.0190301 -0.00177884 0.5
0.05334 0.000555 -0.0025 0.5
0.05334 0.000555 0.0025 0.5
0.049846 0.0190301 0.0025 0.5
0.049846 0.0190301 -0.0025 0.5
0.0498972 0.019425 1.99656e-20 0.5
0.0536178 0.0002775 -0.0025 0.5
0.0536178 0.0002775 0.0025 0.5
0.0499639 0.0199377 -0.00230944 0.5
0.0499639 0.0199377 0.00230944 0.5
0.049942 0.01998 0.0025 0.5
0.049942 0.01998 -0.0025 0.5
0.0499639 0.0199377 0.0025 0.5
0.0499639 0.0199377 -0.0025 0.5
0.0499753 0.0200109 0.00236075 0.5
0.0499753 0.0200109 -0.00236075 0.5
0.0499753 0.0200109 -0.0025 0.5
0.0499753 0.0200109 0.0025 0.5
0.0538956 0.0002775 0 0.5
0.0500063 0.0201705 -0.0025 0.5
0.0500063 0.0201705 0.0025 0.5
0.0500396 0.020535 2.63317e-20 0.5
0.0541734 0.0002775 0.0025 0.5
0.0541734 0.0002775 -0.0025 0.5
0.0501413 0.0209551 -0.00189241 0.5
0.0501413 0.0209551 0.00189241 0.5
0.0501413 0.0209551 -0.0025 0.5
0.0501413 0.0209551 0.0025 0.5
0.0544513 0.000555 -0.0025 0.5
0.0544513 0.000555 0.0025 0.5
0.0503081 0.02109 0.0025 0.5
0.0503081 0.02109 -0.0025 0.5
0.0547291 0.0002775 0.0025 0.5
0.0547291 0.0002775 -0.0025 0.5
0.0505218 0.0216441 -6.43885e-20 0.5
0.0504959 0.0215791 0.0025 0.5
0.0504959 0.0215791 -0.0025 0.5
0.0550069 0.0002775 -5.58287e-21 0.5
0.0505316 0.0216752 0.0025 0.5
0.0505316 0.0216752 -0.0025 0.5
0.0552847 0.0002775 0.0025 0.5
0.0552847 0.0002775 -0.0025 0.5
0.0507026 0.0222 0.0025 0.5
0.0507026 0.0222 -0.0025 0.5
0.0555625 0.000555 -0.0025 0.5
0.0555625 0.000555 0.0025 0.5
0.050891 0.0224263 0.00148074 0.5
0.050891 0.0224263 -0.00148074 0.5
0.050891 0.0224263 0.0025 0.5
0.050891 0.0224263 -0.0025 0.5
0.0509527 0.022755 -1.76935e-19 0.5
0.0558403 0.0002775 0.0025 0.5
0.0558403 0.0002775 -0.0025 0.5
0.0510048 0.0231974 -0.00199301 0.5
0.0510048 0.0231974 0.00199301 0.5
0.0510048 0.0231974 -0.0025 0.5
0.0510048 0.0231974 0.0025 0.5
0.0509642 0.02331 -0.0025 0.5
0.0509642 0.02331 0.0025 0.5
0.0561181 0.0002775 0 0.5
0.051044 0.0233834 0.00216942 0.5
0.051044 0.0233834 -0.00216942 0.5
0.051044 0.0233834 0.0025 0.5
0.051044 0.0233834 -0.0025 0.5
0.05109 0.023865 2.36101e-20 0.5
0.0563959 0.0002775 0.0025 0.5
0.0563959 0.0002775 -0.0025 0.5
0.0511175 0.0238507 -0.0025 0.5
0.0511175 0.0238507 0.0025 0.5
0.051188 0.0243496 -0.00218281 0.5
0.051188 0.0243496 0.00218281 0.5
0.0566738 0.000555 -0.0025 0.5
0.0566738 0.000555 0.0025 0.5
0.051188 0.0243496 0.0025 0.5
0.051188 0.0243496 -0.0025 0.5
0.0512829 0.02442 0.0025 0.5
0.0512829 0.02442 -0.0025 0.5
0.0512894 0.0245917 -0.00172647 0.5
0.0512894 0.0245917 0.00172647 0.5
0.0512894 0.0245917 0.0025 0.5
0.0512894 0.0245917 -0.0025 0.5
0.0569516 0.0002775 0.0025 0.5
0.0569516 0.0002775 -0.0025 0.5
0.0572294 0.0002775 0 0.5
0.0514845 0.0252032 -1.50899e-19 0.5
0.0514582 0.0251897 -0.0025 0.5
0.0514582 0.0251897 0.0025 0.5
0.0575072 0.0002775 0.0025 0.5
0.0575072 0.0002775 -0.0025 0.5
0.0516889 0.02553 0.0025 0.5
0.0516889 0.02553 -0.0025 0.5
0.057785 0.000555 -0.0025 0.5
0.057785 0.000555 0.0025 0.5
0.0519174 0.025841 0.0025 0.5
0.0519174 0.025841 -0.0025 0.5
0.0519382 0.0259223 -2.90478e-19 0.5
0.0580628 0.0002775 0.0025 0.5
0.0580628 0.0002775 -0.0025 0.5
0.0583406 0.0002775 0 0.5
0.0520382 0.0264497 0.0016428 0.5
0.0520382 0.0264497 -0.0016428 0.5
0.0520382 0.0264497 0.0025 0.5
0.0520382 0.0264497 -0.0025 0.5
0.0520078 0.02664 0.0025 0.5
0.0520078 0.02664 -0.0025 0.5
0.0521207 0.026748 0.00201363 0.5
0.0521207 0.026748 -0.00201363 0.5
0.0521207 0.026748 0.0025 0.5
0.0521207 0.026748 -0.0025 0.5
0.0586184 0.0002775 0.0025 0.5
0.0586184 0.0002775 -0.0025 0.5
0.0521749 0.027195 5.94722e-19 0.5
0.0588963 0.000555 -0.0025 0.5
0.0588963 0.000555 0.0025 0.5
0.0522287 0.0277363 -0.0025 0.5
0.0522287 0.0277363 0.0025 0.5
0.0522301 0.0277486 -0.00249382 0.5
0.0522301 0.0277486 0.00249382 0.5
0.0522301 0.0277486 0.0025 0.5
0.0522301 0.0277486 -0.0025 0.5
0.0522304 0.0277517 -0.00249241 0.5
0.0522304 0.0277517 0.00249241 0.5
0.0522304 0.0277517 0.0025 0.5
0.0522304 0.0277517 -0.0025 0.5
0.0522316 0.02775 0.0025 0.5
0.0522316 0.02775 -0.0025 0.5
0.0591741 0.0002775 0.0025 0.5
0.0591741 0.0002775 -0.0025 0.5
0.0594519 0.0002775 -7.45167e-21 0.5
0.0522859 0.028305 -1.94317e-18 0.5
0.0523817 0.0287073 -0.00181194 0.5
0.0523817 0.0287073 0.00181194 0.5
0.0597297 0.0002775 0.0025 0.5
0.0597297 0.0002775 -0.0025 0.5
0.0523817 0.0287073 -0.0025 0.5
0.0523817 0.0287073 0.0025 0.5
0.052572 0.02886 0.0025 0.5
0.052572 0.02886 -0.0025 0.5
0.0600075 0.000555 -0.0025 0.5
0.0600075 0.000555 0.0025 0.5
0.0602853 0.0002775 0.0025 0.5
0.0602853 0.0002775 -0.0025 0.5
0.0528318 0.0294149 -6.73014e-20 0.5
0.0528212 0.0293782 0.0025 0.5
0.0528212 0.0293782 -0.0025 0.5
0.0605631 0.0002775 -9.93434e-23 0.5
0.0528549 0.0294854 0.0025 0.5
0.0528549 0.0294854 -0.0025 0.5
0.0608409 0.0002775 0.0025 0.5
0.0608409 0.0002775 -0.0025 0.5
0.052965 0.02997 0.0025 0.5
0.052965 0.02997 -0.0025 0.5
0.0531402 0.0301696 0.00160095 0.5
0.0531402 0.0301696 -0.00160095 0.5
0.0531402 0.0301696 0.0025 0.5
0.0531402 0.0301696 -0.0025 0.5
0.0611187 0.000555 -0.0025 0.5
0.0611187 0.000555 0.0025 0.5
0.0532015 0.030525 1.39728e-18 0.5
0.0613966 0.0002775 -0.0025 0.5
0.0613966 0.0002775 0.0025 0.5
0.0532465 0.0309866 0.0020794 0.5
0.0532465 0.0309866 -0.0020794 0.5
0.0532465 0.0309866 0.0025 0.5
0.0532465 0.0309866 -0.0025 0.5
0.0532049 0.03108 -0.0025 0.5
0.0532049 0.03108 0.0025 0.5
0.0616744 0.0002775 0 0.5
0.0532747 0.0311452 -0.0022062 0.5
0.0532747 0.0311452 0.0022062 0.5
0.0532747 0.0311452 -0.0025 0.5
0.0532747 0.0311452 0.0025 0.5
0.0533147 0.031635 -1.33607e-18 0.5
0.0619522 0.0002775 -0.0025 0.5
0.0619522 0.0002775 0.0025 0.5
0.05334 0.0316599 0.0025 0.5
0.05334 0.0316599 -0.0025 0.5
0.06223 0.000555 -0.0025 0.5
0.06223 0.000555 0.0025 0.5
0.0533956 0.0321345 -0.00224997 0.5
0.0533956 0.0321345 0.00224997 0.5
0.0533956 0.0321345 0.0025 0.5
0.0533956 0.0321345 -0.0025 0.5
0.0534662 0.03219 0.0025 0.5
0.0534662 0.03219 -0.0025 0.5
0.0534466 0.0322964 -0.00202053 0.5
0.0534466 0.0322964 0.00202053 0.5
0.0534466 0.0322964 0.0025 0.5
0.0534466 0.0322964 -0.0025 0.5
0.0625078 0.0002775 0.0025 0.5
0.0625078 0.0002775 -0.0025 0.5
0.0535412 0.032745 9.01221e-19 0.5
0.0627856 0.0002775 3.76374e-21 0.5
0.0536072 0.0330331 -0.00129793 0.5
0.0536072 0.0330331 0.00129793 0.5
0.0536072 0.0330331 0.0025 0.5
0.0536072 0.0330331 -0.0025 0.5
0.0630634 0.0002775 -0.0025 0.5
0.0630634 0.0002775 0.0025 0.5
0.053822 0.0333 0.0025 0.5
0.053822 0.0333 -0.0025 0.5
0.0633413 0.000555 -0.0025 0.5
0.0633413 0.000555 0.0025 0.5
0.0636191 0.0002775 0.0025 0.5
0.0636191 0.0002775 -0.0025 0.5
0.0540423 0.0337085 0.0025 0.5
0.0540423 0.0337085 -0.0025 0.5
0.0540637 0.0338333 -4.34586e-21 0.5
0.0638969 0.0002775 -5.95927e-22 0.5
0.0541183 0.0340774 0.0025 0.5
0.0541183 0.0340774 -0.0025 0.5
0.0541138 0.03441 0.0025 0.5
0.0541138 0.03441 -0.0025 0.5
0.0641747 0.0002775 0.0025 0.5
0.0641747 0.0002775 -0.0025 0.5
0.0542608 0.0346002 -0.00164305 0.5
0.0542608 0.0346002 0.00164305 0.5
0.0542608 0.0346002 0.0025 0.5
0.0542608 0.0346002 -0.0025 0.5
0.0644525 0.000555 -0.0025 0.5
0.0644525 0.000555 0.0025 0.5
0.0543045 0.034965 -3.14003e-20 0.5
0.0647303 0.0002775 0.0025 0.5
0.0647303 0.0002775 -0.0025 0.5
0.0543511 0.03542 -0.0020494 0.5
0.0543511 0.03542 0.0020494 0.5
0.0543511 0.03542 0.0025 0.5
0.0543511 0.03542 -0.0025 0.5
0.054309 0.03552 0.0025 0.5
0.054309 0.03552 -0.0025 0.5
0.0650081 0.0002775 0 0.5
0.0543824 0.0355887 0.00219041 0.5
0.0543824 0.0355887 -0.00219041 0.5
0.0543824 0.0355887 0.0025 0.5
0.0543824 0.0355887 -0.0025 0.5
0.0544238 0.036075 2.22065e-20 0.5
0.0652859 0.0002775 0.0025 0.5
0.0652859 0.0002775 -0.0025 0.5
0.0655638 0.000555 -0.0025 0.5
0.0655638 0.000555 0.0025 0.5
0.0544371 0.0366159 -0.00243638 0.5
0.0544371 0.0366159 0.00243638 0.5
0.054425 0.03663 0.0025 0.5
0.054425 0.03663 -0.0025 0.5
0.0544371 0.0366159 0.0025 0.5
0.0544371 0.0366159 -0.0025 0.5
0.0544384 0.0366428 0.00244222 0.5
0.0544384 0.0366428 -0.00244222 0.5
0.0544384 0.0366428 0.0025 0.5
0.0544384 0.0366428 -0.0025 0.5
0.0544513 0.0367977 -0.0025 0.5
0.0544513 0.0367977 0.0025 0.5
0.0658416 0.0002775 0.0025 0.5
0.0658416 0.0002775 -0.0025 0.5
0.0544512 0.037185 -3.01216e-21 0.5
0.0661194 0.0002775 -1.81913e-21 0.5
0.0545164 0.0376749 -0.00220673 0.5
0.0545164 0.0376749 0.00220673 0.5
0.0545164 0.0376749 0.0025 0.5
0.0545164 0.0376749 -0.0025 0.5
0.0545989 0.03774 0.0025 0.5
0.0545989 0.03774 -0.0025 0.5
0.0663972 0.0002775 0.0025 0.5
0.0663972 0.0002775 -0.0025 0.5
0.0545741 0.0378627 -0.00194716 0.5
0.0545741 0.0378627 0.00194716 0.5
0.0545741 0.0378627 0.0025 0.5
0.0545741 0.0378627 -0.0025 0.5
0.066675 0.000555 -0.0025 0.5
0.066675 0.000555 0.0025 0.5
0.0546526 0.038295 0 0.5
0.0547095 0.0385921 -0.00133811 0.5
0.0547095 0.0385921 0.00133811 0.5
0.0547095 0.0385921 0.0025 0.5
0.0547095 0.0385921 -0.0025 0.5
0.0669528 0.0002775 0.0025 0.5
0.0669528 0.0002775 -0.0025 0.5
0.0672306 0.0002775 9.10876e-20 0.5
0.0549029 0.03885 -0.0025 0.5
0.0549029 0.03885 0.0025 0.5
0.0675084 0.0002775 0.0025 0.5
0.0675084 0.0002775 -0.0025 0.5
0.0550933 0.039393 8.35113e-22 0.5
0.0550827 0.0393292 0.0025 0.5
0.0550827 0.0393292 -0.0025 0.5
0.0677863 0.000555 -0.0025 0.5
0.0677863 0.000555 0.0025 0.5
0.0551218 0.0395198 0.0025 0.5
0.0551218 0.0395198 -0.0025 0.5
0.0680641 0.0002775 0.0025 0.5
0.0680641 0.0002775 -0.0025 0.5
0.0551626 0.03996 0.0025 0.5
0.0551626 0.03996 -0.0025 0.5
0.0683419 0.0002775 1.14121e-19 0.5
0.0553207 0.0402016 0.00141185 0.5
0.0553207 0.0402016 -0.00141185 0.5
0.0553207 0.0402016 0.0025 0.5
0.0553207 0.0402016 -0.0025 0.5
0.0553606 0.040515 -2.97081e-20 0.5
0.0686197 0.0002775 0.0025 0.5
0.0686197 0.0002775 -0.0025 0.5
0.0553942 0.0409019 -0.00174269 0.5
0.0553942 0.0409019 0.00174269 0.5
0.0553942 0.0409019 -0.0025 0.5
0.0553942 0.0409019 0.0025 0.5
0.0688975 0.000555 -0.0025 0.5
0.0688975 0.000555 0.0025 0.5
0.055337 0.04107 0.0025 0.5
0.055337 0.04107 -0.0025 0.5
0.0554406 0.0411918 -0.00195138 0.5
0.0554406 0.0411918 0.00195138 0.5
0.0554406 0.0411918 0.0025 0.5
0.0554406 0.0411918 -0.0025 0.5
0.0691753 0.0002775 0.0025 0.5
0.0691753 0.0002775 -0.0025 0.5
0.0554727 0.041625 -8.29077e-19 0.5
0.0694531 0.0002775 9.36031e-20 0.5
0.0554959 0.0421135 -0.00220037 0.5
0.0554959 0.0421135 0.00220037 0.5
0.0554959 0.0421135 0.0025 0.5
0.0554959 0.0421135 -0.0025 0.5
0.0554533 0.04218 -0.0025 0.5
0.0554533 0.04218 0.0025 0.5
0.0697309 0.0002775 0.0025 0.5
0.0697309 0.0002775 -0.0025 0.5
0.055507 0.0422354 0.00225024 0.5
0.055507 0.0422354 -0.00225024 0.5
0.055507 0.0422354 0.0025 0.5
0.055507 0.0422354 -0.0025 0.5
0.0700088 0.000555 -0.0025 0.5
0.0700088 0.000555 0.0025 0.5
0.0555287 0.042735 7.2659e-19 0.5
0.0702866 0.0002775 0.0025 0.5
0.0702866 0.0002775 -0.0025 0.5
0.0555414 0.0432689 -0.00240503 0.5
0.0555414 0.0432689 0.00240503 0.5
0.0555237 0.04329 -0.0025 0.5
0.0555237 0.04329 0.0025 0.5
0.0555414 0.0432689 0.0025 0.5
0.0555414 0.0432689 -0.0025 0.5
0.0555433 0.0433092 0.00241345 0.5
0.0555433 0.0433092 -0.00241345 0.5
0.0555433 0.0433092 0.0025 0.5
0.0555433 0.0433092 -0.0025 0.5
0.0705644 0.0002775 2.66209e-19 0.5
0.0555554 0.043845 -4.6076e-20 0.5
0.0708422 0.0002775 0.0025 0.5
0.0708422 0.0002775 -0.0025 0.5
0.0555589 0.0443964 -0.00248381 0.5
0.0555589 0.0443964 0.00248381 0.5
0.0555554 0.0444 0.0025 0.5
0.0555554 0.0444 -0.0025 0.5
0.0555589 0.0443964 0.0025 0.5
0.0555589 0.0443964 -0.0025 0.5
0.07112 0.000555 -0.0025 0.5
0.07112 0.000555 0.0025 0.5
0.055559 0.0444035 0.00248421 0.5
0.055559 0.0444035 -0.00248421 0.5
0.055559 0.0444035 0.0025 0.5
0.055559 0.0444035 -0.0025 0.5
0.0713978 0.0002775 0.0025 0.5
0.0713978 0.0002775 -0.0025 0.5
0.0555624 0.044955 -2.48443e-20 0.5
0.0716756 0.0002775 9.36031e-20 0.5
0.0555625 0.04551 -0.00249984 0.5
0.0555625 0.04551 0.00249984 0.5
0.0555625 0.04551 0.0025 0.5
0.0555625 0.04551 -0.0025 0.5
0.0555625 0.0455117 -0.0025 0.5
0.0555625 0.0455117 0.0025 0.5
0.0719534 0.0002775 0.0025 0.5
0.0719534 0.0002775 -0.0025 0.5
0.0555625 0.046065 0 0.5
0.0722313 0.000555 -0.0025 0.5
0.0722313 0.000555 0.0025 0.5
0.0725091 0.0002775 0.0025 0.5
0.0725091 0.0002775 -0.0025 0.5
0.0555844 0.0465981 -0.00240151 0.5
0.0555844 0.0465981 0.00240151 0.5
0.0555844 0.0465981 0.0025 0.5
0.0555844 0.0465981 -0.0025 0.5
0.0555885 0.046646 -0.00238308 0.5
0.0555885 0.046646 0.00238308 0.5
0.0556081 0.04662 0.0025 0.5
0.0556081 0.04662 -0.0025 0.5
0.0555885 0.046646 0.0025 0.5
0.0555885 0.046646 -0.0025 0.5
0.0727869 0.0002775 1.145e-19 0.5
0.0556121 0.047175 7.34625e-20 0.5
0.0730647 0.0002775 0.0025 0.5
0.0730647 0.0002775 -0.0025 0.5
0.0556342 0.0476584 0.00217758 0.5
0.0556342 0.0476584 -0.00217758 0.5
0.0556342 0.0476584 0.0025 0.5
0.0556342 0.0476584 -0.0025 0.5
0.0733425 0.000555 -0.0025 0.5
0.0733425 0.000555 0.0025 0.5
0.0557 0.04773 0.0025 0.5
0.0557 0.04773 -0.0025 0.5
0.0556493 0.0478167 0.00210966 0.5
0.0556493 0.0478167 -0.00210966 0.5
0.0556493 0.0478167 0.0025 0.5
0.0556493 0.0478167 -0.0025 0.5
0.0736203 0.0002775 0.0025 0.5
0.0736203 0.0002775 -0.0025 0.5
0.0556727 0.048285 -1.53669e-18 0.5
0.0738981 0.0002775 1.12679e-19 0.5
0.0556838 0.0487188 -0.00195427 0.5
0.0556838 0.0487188 0.00195427 0.5
0.0556838 0.0487188 0.0025 0.5
0.0556838 0.0487188 -0.0025 0.5
0.0557701 0.04884 0.0025 0.5
0.0557701 0.04884 -0.0025 0.5
0.0556972 0.0489745 0.00189397 0.5
0.0556972 0.0489745 -0.00189397 0.5
0.0556972 0.0489745 0.0025 0.5
0.0556972 0.0489745 -0.0025 0.5
0.0741759 0.0002775 0.0025 0.5
0.0741759 0.0002775 -0.0025 0.5
0.0557085 0.049395 1.51148e-18 0.5
0.0744538 0.000555 -0.0025 0.5
0.0744538 0.000555 0.0025 0.5
0.0557138 0.0497988 -0.00181905 0.5
0.0557138 0.0497988 0.00181905 0.5
0.0557138 0.0497988 0.0025 0.5
0.0557138 0.0497988 -0.0025 0.5
0.0747316 0.0002775 0.0025 0.5
0.0747316 0.0002775 -0.0025 0.5
0.0558054 0.04995 -0.0025 0.5
0.0558054 0.04995 0.0025 0.5
0.0557222 0.0501095 -0.00178163 0.5
0.0557222 0.0501095 0.00178163 0.5
0.0557222 0.0501095 0.0025 0.5
0.0557222 0.0501095 -0.0025 0.5
0.0750094 0.0002775 1.14375e-19 0.5
0.0557275 0.050505 8.51895e-19 0.5
0.0752872 0.0002775 0.0025 0.5
0.0752872 0.0002775 -0.0025 0.5
0.0557274 0.0508953 -0.00175812 0.5
0.0557274 0.0508953 0.00175812 0.5
0.0557274 0.0508953 0.0025 0.5
0.0557274 0.0508953 -0.0025 0.5
0.075565 0.000555 -0.0025 0.5
0.075565 0.000555 0.0025 0.5
0.0558167 0.05106 0.0025 0.5
0.0558167 0.05106 -0.0025 0.5
0.0557271 0.0512245 0.00175918 0.5
0.0557271 0.0512245 -0.00175918 0.5
0.0557271 0.0512245 0.0025 0.5
0.0557271 0.0512245 -0.0025 0.5
0.0758428 0.0002775 0.0025 0.5
0.0758428 0.0002775 -0.0025 0.5
0.055727 0.051615 -3.00433e-18 0.5
0.0761206 0.0002775 1.14623e-19 0.5
0.055722 0.0520107 0.00178243 0.5
0.055722 0.0520107 -0.00178243 0.5
0.055722 0.0520107 0.0025 0.5
0.055722 0.0520107 -0.0025 0.5
0.0558055 0.05217 0.0025 0.5
0.0558055 0.05217 -0.0025 0.5
0.0763984 0.0002775 0.0025 0.5
0.0763984 0.0002775 -0.0025 0.5
0.0557142 0.0523215 -0.00181752 0.5
0.0557142 0.0523215 0.00181752 0.5
0.0557142 0.0523215 -0.0025 0.5
0.0557142 0.0523215 0.0025 0.5
0.0557092 0.052725 2.16168e-18 0.5
0.0766763 0.000555 -0.0025 0.5
0.0766763 0.000555 0.0025 0.5
0.0769541 0.0002775 0.0025 0.5
0.0769541 0.0002775 -0.0025 0.5
0.0556983 0.0531444 -0.00188909 0.5
0.0556983 0.0531444 0.00188909 0.5
0.0556983 0.0531444 0.0025 0.5
0.0556983 0.0531444 -0.0025 0.5
0.0557718 0.05328 0.0025 0.5
0.0557718 0.05328 -0.0025 0.5
0.0556852 0.0534025 -0.00194799 0.5
0.0556852 0.0534025 0.00194799 0.5
0.0556852 0.0534025 0.0025 0.5
0.0556852 0.0534025 -0.0025 0.5
0.0772319 0.0002775 1.08196e-19 0.5
0.0556745 0.053835 4.60767e-18 0.5
0.0775097 0.0002775 0.0025 0.5
0.0775097 0.0002775 -0.0025 0.5
0.0556564 0.0542962 -0.00207748 0.5
0.0556564 0.0542962 0.00207748 0.5
0.0556564 0.0542962 -0.0025 0.5
0.0556564 0.0542962 0.0025 0.5
0.0777875 0.000555 -0.0025 0.5
0.0777875 0.000555 0.0025 0.5
0.0556432 0.0544706 -0.00213672 0.5
0.0556432 0.0544706 0.00213672 0.5
0.0557127 0.05439 -0.0025 0.5
0.0557127 0.05439 0.0025 0.5
0.0556432 0.0544706 -0.0025 0.5
0.0556432 0.0544706 0.0025 0.5
0.0780653 0.0002775 0.0025 0.5
0.0780653 0.0002775 -0.0025 0.5
0.055626 0.054945 -4.4722e-18 0.5
0.0783431 0.0002775 8.26565e-20 0.5
0.0555962 0.0554664 -0.00234852 0.5
0.0555962 0.0554664 0.00234852 0.5
0.0555962 0.0554664 0.0025 0.5
0.0555962 0.0554664 -0.0025 0.5
0.0555896 0.0555271 -0.00237807 0.5
0.0555896 0.0555271 0.00237807 0.5
0.0555896 0.0555271 -0.0025 0.5
0.0555896 0.0555271 0.0025 0.5
0.0556195 0.0555 0.0025 0.5
0.0556195 0.0555 -0.0025 0.5
0.0786209 0.0002775 0.0025 0.5
0.0786209 0.0002775 -0.0025 0.5
0.0555625 0.056055 9.0515e-20 0.5
0.0788988 0.000555 -0.0025 0.5
0.0788988 0.000555 0.0025 0.5
0.0791766 0.0002775 0.0025 0.5
0.0791766 0.0002775 -0.0025 0.5
0.0555625 0.05661 -0.0025 0.5
0.0555625 0.05661 0.0025 0.5
0.0794544 0.0002775 9.54222e-20 0.5
0.0555625 0.057165 -1.04508e-19 0.5
0.0797322 0.0002775 0.0025 0.5
0.0797322 0.0002775 -0.0025 0.5
0.08001 0.000555 -0.0025 0.5
0.08001 0.000555 0.0025 0.5
0.0555596 0.0577171 -0.00248707 0.5
0.0555596 0.0577171 0.00248707 0.5
0.0555596 0.0577171 0.0025 0.5
0.0555596 0.0577171 -0.0025 0.5
0.0555567 0.05772 0.0025 0.5
0.0555567 0.05772 -0.0025 0.5
0.0555596 0.0577229 0.00248679 0.5
0.0555596 0.0577229 -0.00248679 0.5
0.0555596 0.0577229 0.0025 0.5
0.0555596 0.0577229 -0.0025 0.5
0.0802878 0.0002775 0.0025 0.5
0.0802878 0.0002775 -0.0025 0.5
0.0555567 0.058275 -1.07593e-19 0.5
0.0805656 0.0002775 1.15842e-19 0.5
0.0808434 0.0002775 0.0025 0.5
0.0808434 0.0002775 -0.0025 0.5
0.0555494 0.0588169 -0.00244102 0.5
0.0555494 0.0588169 0.00244102 0.5
0.0555494 0.0588169 0.0025 0.5
0.0555494 0.0588169 -0.0025 0.5
0.0555362 0.05883 0.0025 0.5
0.0555362 0.05883 -0.0025 0.5
0.0555487 0.0588438 0.00243773 0.5
0.0555487 0.0588438 -0.00243773 0.5
0.0555487 0.0588438 0.0025 0.5
0.0555487 0.0588438 -0.0025 0.5
0.0811213 0.000555 -0.0025 0.5
0.0811213 0.000555 0.0025 0.5
0.0555412 0.059385 -3.12712e-21 0.5
0.0813991 0.0002775 0.0025 0.5
0.0813991 0.0002775 -0.0025 0.5
0.0816769 0.0002775 9.5745e-20 0.5
0.0555312 0.0599088 -0.00235929 0.5
0.0555312 0.0599088 0.00235929 0.5
0.0555312 0.0599088 0.0025 0.5
0.0555312 0.0599088 -0.0025 0.5
0.0555011 0.05994 0.0025 0.5
0.0555011 0.05994 -0.0025 0.5
0.0555287 0.0599738 0.00234793 0.5
0.0555287 0.0599738 -0.00234793 0.5
0.0555287 0.0599738 0.0025 0.5
0.0555287 0.0599738 -0.0025 0.5
0.0819547 0.0002775 0.0025 0.5
0.0819547 0.0002775 -0.0025 0.5
0.0555184 0.060495 -7.3939e-20 0.5
0.0822325 0.000555 -0.0025 0.5
0.0822325 0.000555 0.0025 0.5
0.0555071 0.0609947 -0.00225092 0.5
0.0555071 0.0609947 0.00225092 0.5
0.0555071 0.0609947 0.0025 0.5
0.0555071 0.0609947 -0.0025 0.5
0.0554576 0.06105 0.0025 0.5
0.0554576 0.06105 -0.0025 0.5
0.0825103 0.0002775 0.0025 0.5
0.0825103 0.0002775 -0.0025 0.5
0.0555018 0.0611106 0.00222691 0.5
0.0555018 0.0611106 -0.00222691 0.5
0.0555018 0.0611106 0.0025 0.5
0.0555018 0.0611106 -0.0025 0.5
0.0827881 0.0002775 8.32524e-20 0.5
0.0554902 0.061605 -7.13566e-20 0.5
0.0830659 0.0002775 0.0025 0.5
0.0830659 0.0002775 -0.0025 0.5
0.055479 0.0620766 -0.00212451 0.5
0.055479 0.0620766 0.00212451 0.5
0.055479 0.0620766 0.0025 0.5
0.055479 0.0620766 -0.0025 0.5
0.0554113 0.06216 0.0025 0.5
0.0554113 0.06216 -0.0025 0.5
0.0833437 0.000555 -0.0025 0.5
0.0833437 0.000555 0.0025 0.5
0.0554706 0.0622518 0.00208647 0.5
0.0554706 0.0622518 -0.00208647 0.5
0.0554706 0.0622518 0.0025 0.5
0.0554706 0.0622518 -0.0025 0.5
0.0836216 0.0002775 0.0025 0.5
0.0836216 0.0002775 -0.0025 0.5
0.0554591 0.062715 0 0.5
0.0838994 0.0002775 3.228e-22 0.5
0.0554498 0.0631574 -0.00199293 0.5
0.0554498 0.0631574 0.00199293 0.5
0.0554498 0.0631574 0.0025 0.5
0.0554498 0.0631574 -0.0025 0.5
0.0553685 0.06327 0.0025 0.5
0.0553685 0.06327 -0.0025 0.5
0.0841772 0.0002775 0.0025 0.5
0.0841772 0.0002775 -0.0025 0.5
0.0554397 0.0633927 0.00194728 0.5
0.0554397 0.0633927 -0.00194728 0.5
0.0554397 0.0633927 0.0025 0.5
0.0554397 0.0633927 -0.0025 0.5
0.084455 0.000555 -0.0025 0.5
0.084455 0.000555 0.0025 0.5
0.0554301 0.063825 3.07592e-20 0.5
0.0847328 0.0002775 0.0025 0.5
0.0847328 0.0002775 -0.0025 0.5
0.0554238 0.0642415 -0.00187593 0.5
0.0554238 0.0642415 0.00187593 0.5
0.0554238 0.0642415 -0.0025 0.5
0.0554238 0.0642415 0.0025 0.5
0.0553351 0.06438 0.0025 0.5
0.0553351 0.06438 -0.0025 0.5
0.0850106 0.0002775 0 0.5
0.055415 0.0645274 0.00183623 0.5
0.055415 0.0645274 -0.00183623 0.5
0.055415 0.0645274 0.0025 0.5
0.055415 0.0645274 -0.0025 0.5
0.0852884 0.0002775 0.0025 0.5
0.0852884 0.0002775 -0.0025 0.5
0.0554086 0.064935 1.79599e-20 0.5
0.0855663 0.000555 -0.0025 0.5
0.0855663 0.000555 0.0025 0.5
0.0554139 0.0653415 -0.00183128 0.5
0.0554139 0.0653415 0.00183128 0.5
0.0554139 0.0653415 0.0025 0.5
0.0554139 0.0653415 -0.0025 0.5
0.0553328 0.06549 0.0025 0.5
0.0553328 0.06549 -0.0025 0.5
0.0858441 0.0002775 0.0025 0.5
0.0858441 0.0002775 -0.0025 0.5
0.0554213 0.065631 0.00186475 0.5
0.0554213 0.065631 -0.00186475 0.5
0.0554213 0.065631 0.0025 0.5
0.0554213 0.065631 -0.0025 0.5
0.0555625 0.0656802 -0.0025 0.5
0.0555625 0.0656802 0.0025 0.5
0.0861219 0.0002775 0 0.5
0.0554266 0.066045 0 0.5
0.0863997 0.0002775 0.0025 0.5
0.0863997 0.0002775 -0.0025 0.5
0.0866775 0.000555 -0.0025 0.5
0.0866775 0.000555 0.0025 0.5
0.0558403 0.0663225 0.0025 0.5
0.0558403 0.0663225 -0.0025 0.5
0.0561181 0.0663225 0 0.5
0.0869553 0.0002775 0.0025 0.5
0.0869553 0.0002775 -0.0025 0.5
0.0566738 0.066045 -0.0025 0.5
0.0566738 0.066045 0.0025 0.5
0.0563959 0.0663225 0.0025 0.5
0.0563959 0.0663225 -0.0025 0.5
0.0872331 0.0002775 0 0.5
0.0569516 0.0663225 0.0025 0.5
0.0569516 0.0663225 -0.0025 0.5
0.0875109 0.0002775 0.0025 0.5
0.0875109 0.0002775 -0.0025 0.5
0.0572294 0.0663225 0 0.5
0.057785 0.066045 -0.0025 0.5
0.057785 0.066045 0.0025 0.5
0.0575072 0.0663225 0.0025 0.5
0.0575072 0.0663225 -0.0025 0.5
0.0877888 0.000555 -0.0025 0.5
0.0877888 0.000555 0.0025 0.5
0.0880666 0.0002775 -0.00125 0.5
0.0880666 0.0002775 0.00125 0.5
0.0880666 0.0002775 0.0025 0.5
0.0880666 0.0002775 -0.0025 0.5
0.0580628 0.0663225 -0.0025 0.5
0.0580628 0.0663225 0.0025 0.5
0.0583406 0.0663225 0 0.5
0.0883444 0.0002775 0 0.5
0.0883444 0.00111 0.0025 0.5
0.0883444 0.00111 -0.0025 0.5
0.0883444 0.00222 0.0025 0.5
0.0883444 0.00222 -0.0025 0.5
0.0883444 0.00333 0.0025 0.5
0.0883444 0.00333 -0.0025 0.5
0.0883444 0.00444 0.0025 0.5
0.0883444 0.00444 -0.0025 0.5
0.0588963 0.066045 -0.0025 0.5
0.0588963 0.066045 0.0025 0.5
0.0586184 0.0663225 -0.0025 0.5
0.0586184 0.0663225 0.0025 0.5
0.0883444 0.00555 0.0025 0.5
0.0883444 0.00555 -0.0025 0.5
0.0886222 0.000555 0 0.5
0.0883444 0.00666 0.0025 0.5
0.0883444 0.00666 -0.0025 0.5
0.0886222 0.0002775 -0.00125 0.5
0.0886222 0.0002775 0.00125 0.5
0.0886222 0.0008325 0.00125 0.5
0.0886222 0.0008325 -0.00125 0.5
0.0886222 0.001665 0 0.5
0.0886222 0.0002775 0.0025 0.5
0.0886222 0.0002775 -0.0025 0.5
0.0886222 0.0008325 0.0025 0.5
0.0886222 0.0008325 -0.0025 0.5
0.0886222 0.002775 0 0.5
0.0886222 0.0013875 0.0025 0.5
0.0886222 0.0013875 -0.0025 0.5
0.0886222 0.0019425 0.0025 0.5
0.0886222 0.0019425 -0.0025 0.5
0.0886222 0.0024975 0.0025 0.5
0.0886222 0.0024975 -0.0025 0.5
0.0886222 0.003885 0 0.5
0.0886222 0.0030525 0.0025 0.5
0.0886222 0.0030525 -0.0025 0.5
0.0883444 0.00777 0.0025 0.5
0.0883444 0.00777 -0.0025 0.5
0.0886222 0.0036075 0.0025 0.5
0.0886222 0.0036075 -0.0025 0.5
0.0886222 0.0041625 0.0025 0.5
0.0886222 0.0041625 -0.0025 0.5
0.0886222 0.004995 -1.81603e-19 0.5
0.0886222 0.0047175 0.0025 0.5
0.0886222 0.0047175 -0.0025 0.5
0.0886222 0.0052725 0.0025 0.5
0.0886222 0.0052725 -0.0025 0.5
0.0883444 0.00888 0.0025 0.5
0.0883444 0.00888 -0.0025 0.5
0.0886222 0.006105 -4.31797e-21 0.5
0.0886222 0.0058275 0.0025 0.5
0.0886222 0.0058275 -0.0025 0.5