# f_l  POINT_DATA 2065
#  x  y  z  f_l
0.000375 0.000375 0 0.5
0.0015 0.00025 5.72608e-20 0.5
0.00025 0.0015 0 0.5
0.0025 0.00025 -1.6386e-20 0.5
0.00025 0.0025 1.89735e-19 0.5
0.00025 0.00025 0.0025 0.5
0.00025 0.00025 -0.0025 0.5
0.00075 0.00025 0.0025 0.5
0.00025 0.00075 0.0025 0.5
0.00025 0.00075 -0.0025 0.5
0.00075 0.00025 -0.0025 0.5
0.001 0.0005 -0.0025 0.5
0.001 0.0005 0.0025 0.5
0.0005 0.001 0.0025 0.5
0.0005 0.001 -0.0025 0.5
0.00125 0.00025 0.0025 0.5
0.00025 0.00125 -0.0025 0.5
0.00125 0.00025 -0.0025 0.5
0.00025 0.00125 0.0025 0.5
0.00175 0.00025 0.0025 0.5
0.00025 0.00175 -0.0025 0.5
0.00175 0.00025 -0.0025 0.5
0.00025 0.00175 0.0025 0.5
0.002 0.0005 -0.0025 0.5
0.002 0.0005 0.0025 0.5
0.0005 0.002 0.0025 0.5
0.0005 0.002 -0.0025 0.5
0.00025 0.00225 0.0025 0.5
0.00025 0.00225 -0.0025 0.5
0.00225 0.00025 0.0025 0.5
0.00225 0.00025 -0.0025 0.5
0.0035 0.00025 -1.38704e-19 0.5
0.00025 0.0035 -1.89735e-19 0.5
0.00025 0.00275 0.0025 0.5
0.00025 0.00275 -0.0025 0.5
0.00275 0.00025 0.0025 0.5
0.00275 0.00025 -0.0025 0.5
0.0005 0.003 -0.0025 0.5
0.003 0.0005 -0.0025 0.5
0.003 0.0005 0.0025 0.5
0.0005 0.003 0.0025 0.5
0.00025 0.00325 0.0025 0.5
0.00325 0.00025 0.0025 0.5
0.00025 0.00325 -0.0025 0.5
0.00325 0.00025 -0.0025 0.5
0.0045 0.00025 -5.72243e-20 0.5
0.00025 0.0045 0 0.5
0.00025 0.00375 0.0025 0.5
0.00375 0.00025 0.0025 0.5
0.00025 0.00375 -0.0025 0.5
0.00375 0.00025 -0.0025 0.5
0.004 0.0005 -0.0025 0.5
0.004 0.0005 0.0025 0.5
0.0005 0.004 0.0025 0.5
0.0005 0.004 -0.0025 0.5
0.00025 0.00425 0.0025 0.5
0.00425 0.00025 0.0025 0.5
0.00025 0.00425 -0.0025 0.5
0.00425 0.00025 -0.0025 0.5
0.00475 0.00025 0.0025 0.5
0.00475 0.00025 -0.0025 0.5
0.00025 0.00475 0.0025 0.5
0.00025 0.00475 -0.0025 0.5
0.00025 0.0055 0 0.5
0.0055 0.00025 -2.36936e-21 0.5
0.005 0.0005 -0.0025 0.5
0.005 0.0005 0.0025 0.5
0.0005 0.005 0.0025 0.5
0.0005 0.005 -0.0025 0.5
0.00025 0.00525 -0.0025 0.5
0.00525 0.00025 0.0025 0.5
0.00025 0.00525 0.0025 0.5
0.00525 0.00025 -0.0025 0.5
0.00025 0.00575 -0.0025 0.5
0.00575 0.00025 0.0025 0.5
0.00575 0.00025 -0.0025 0.5
0.00025 0.00575 0.0025 0.5
0.0065 0.00025 5.2773e-20 0.5
0.00025 0.0065 0 0.5
0.0005 0.006 0.0025 0.5
0.0005 0.006 -0.0025 0.5
0.006 0.0005 -0.0025 0.5
0.006 0.0005 0.0025 0.5
0.00625 0.00025 0.0025 0.5
0.00025 0.00625 0.0025 0.5
0.00025 0.00625 -0.0025 0.5
0.00625 0.00025 -0.0025 0.5
0.00025 0.00675 0.0025 0.5
0.00675 0.00025 0.0025 0.5
0.00025 0.00675 -0.0025 0.5
0.00675 0.00025 -0.0025 0.5
0.007 0.0005 -0.0025 0.5
0.0005 0.007 0.0025 0.5
0.0005 0.007 -0.0025 0.5
0.007 0.0005 0.0025 0.5
0.0075 0.00025 4.99235e-20 0.5
0.00025 0.0075 -2.43945e-19 0.5
0.00025 0.00725 0.0025 0.5
0.00025 0.00725 -0.0025 0.5
0.00725 0.00025 -0.0025 0.5
0.00725 0.00025 0.0025 0.5
0.00025 0.00775 0.0025 0.5
0.00025 0.00775 -0.0025 0.5
0.00775 0.00025 -0.0025 0.5
0.00775 0.00025 0.0025 0.5
0.008 0.0005 -0.0025 0.5
0.008 0.0005 0.0025 0.5
0.0005 0.008 0.0025 0.5
0.0005 0.008 -0.0025 0.5
0.0085 0.00025 -2.36936e-21 0.5
0.00025 0.0085 2.43945e-19 0.5
0.00025 0.00825 0.0025 0.5
0.00825 0.00025 0.0025 0.5
0.00025 0.00825 -0.0025 0.5
0.00825 0.00025 -0.0025 0.5
0.00875 0.00025 0.0025 0.5
0.00025 0.00875 -0.0025 0.5
0.00025 0.00875 0.0025 0.5
0.00875 0.00025 -0.0025 0.5
0.009 0.0005 -0.0025 0.5
0.009 0.0005 0.0025 0.5
0.0005 0.009 0.0025 0.5
0.0005 0.009 -0.0025 0.5
0.0095 0.00025 -8.67352e-20 0.5
0.00025 0.0095 0 0.5
0.00025 0.00925 -0.0025 0.5
0.00025 0.00925 0.0025 0.5
0.00925 0.00025 0.0025 0.5
0.00925 0.00025 -0.0025 0.5
0.00025 0.00975 0.0025 0.5
0.00975 0.00025 0.0025 0.5
0.00025 0.00975 -0.0025 0.5
0.00975 0.00025 -0.0025 0.5
0.01 0.0005 -0.0025 0.5
0.01 0.0005 0.0025 0.5
0.0005 0.01 0.0025 0.5
0.0005 0.01 -0.0025 0.5
0.00025 0.0105 0 0.5
0.0105 0.00025 -7.98788e-20 0.5
0.01025 0.00025 0.0025 0.5
0.00025 0.01025 -0.0025 0.5
0.00025 0.01025 0.0025 0.5
0.01025 0.00025 -0.0025 0.5
0.01075 0.00025 0.0025 0.5
0.00025 0.01075 -0.0025 0.5
0.00025 0.01075 0.0025 0.5
0.01075 0.00025 -0.0025 0.5
0.011 0.0005 -0.0025 0.5
0.011 0.0005 0.0025 0.5
0.0005 0.011 0.0025 0.5
0.0005 0.011 -0.0025 0.5
0.0115 0.00025 0 0.5
0.00025 0.0115 0 0.5
0.00025 0.01125 0.0025 0.5
0.01125 0.00025 0.0025 0.5
0.00025 0.01125 -0.0025 0.5
0.01125 0.00025 -0.0025 0.5
0.00025 0.01175 0.0025 0.5
0.01175 0.00025 0.0025 0.5
0.00025 0.01175 -0.0025 0.5
0.01175 0.00025 -0.0025 0.5
0.0005 0.012 0.0025 0.5
0.0005 0.012 -0.0025 0.5
0.012 0.0005 -0.0025 0.5
0.012 0.0005 0.0025 0.5
0.0125 0.00025 -6.56015e-22 0.5
0.00025 0.0125 0 0.5
0.01225 0.00025 0.0025 0.5
0.00025 0.01225 -0.0025 0.5
0.01225 0.00025 -0.0025 0.5
0.00025 0.01225 0.0025 0.5
0.01275 0.00025 0.0025 0.5
0.00025 0.01275 -0.0025 0.5
0.01275 0.00025 -0.0025 0.5
0.00025 0.01275 0.0025 0.5
0.013 0.0005 -0.0025 0.5
0.013 0.0005 0.0025 0.5
0.0005 0.013 0.0025 0.5
0.0005 0.013 -0.0025 0.5
0.01325 0.00025 0.0025 0.5
0.01325 0.00025 -0.0025 0.5
0.00025 0.01325 0.0025 0.5
0.00025 0.01325 -0.0025 0.5
0.00025 0.0135 0 0.5
0.0135 0.00025 0 0.5
0.01375 0.00025 0.0025 0.5
0.01375 0.00025 -0.0025 0.5
0.00025 0.01375 0.0025 0.5
0.00025 0.01375 -0.0025 0.5
0.014 0.0005 -0.0025 0.5
0.014 0.0005 0.0025 0.5
0.0005 0.014 0.0025 0.5
0.0005 0.014 -0.0025 0.5
0.00025 0.01425 0.0025 0.5
0.01425 0.00025 0.0025 0.5
0.00025 0.01425 -0.0025 0.5
0.01425 0.00025 -0.0025 0.5
0.00025 0.0145 0 0.5
0.0145 0.00025 -8.63823e-20 0.5
0.00025 0.01475 0.0025 0.5
0.01475 0.00025 0.0025 0.5
0.00025 0.01475 -0.0025 0.5
0.01475 0.00025 -0.0025 0.5
0.015 0.0005 -0.0025 0.5
0.015 0.0005 0.0025 0.5
0.0005 0.015 0.0025 0.5
0.0005 0.015 -0.0025 0.5
0.00025 0.01525 0.0025 0.5
0.01525 0.00025 0.0025 0.5
0.00025 0.01525 -0.0025 0.5
0.01525 0.00025 -0.0025 0.5
0.0155 0.00025 -7.83693e-20 0.5
0.00025 0.0155 0 0.5
0.00025 0.01575 0.0025 0.5
0.01575 0.00025 0.0025 0.5
0.00025 0.01575 -0.0025 0.5
0.01575 0.00025 -0.0025 0.5
0.016 0.0005 -0.0025 0.5
0.016 0.0005 0.0025 0.5
0.0005 0.016 0.0025 0.5
0.0005 0.016 -0.0025 0.5
0.00025 0.01625 0.0025 0.5
0.01625 0.00025 0.0025 0.5
0.00025 0.01625 -0.0025 0.5
0.01625 0.00025 -0.0025 0.5
0.0165 0.00025 2.36936e-21 0.5
0.00025 0.0165 0 0.5
0.00025 0.01675 0.0025 0.5
0.01675 0.00025 0.0025 0.5
0.00025 0.01675 -0.0025 0.5
0.01675 0.00025 -0.0025 0.5
0.017 0.0005 -0.0025 0.5
0.017 0.0005 0.0025 0.5
0.0005 0.017 0.0025 0.5
0.0005 0.017 -0.0025 0.5
0.01725 0.00025 0.0025 0.5
0.00025 0.01725 -0.0025 0.5
0.00025 0.01725 0.0025 0.5
0.01725 0.00025 -0.0025 0.5
0.0175 0.00025 -4.73871e-21 0.5
0.00025 0.0175 0 0.5
0.01775 0.00025 0.0025 0.5
0.00025 0.01775 -0.0025 0.5
0.00025 0.01775 0.0025 0.5
0.01775 0.00025 -0.0025 0.5
0.018 0.0005 -0.0025 0.5
0.018 0.0005 0.0025 0.5
0.0005 0.018 0.0025 0.5
0.0005 0.018 -0.0025 0.5
0.00025 0.01825 0.0025 0.5
0.00025 0.01825 -0.0025 0.5
0.01825 0.00025 0.0025 0.5
0.01825 0.00025 -0.0025 0.5
0.0185 0.00025 9.3497e-20 0.5
0.00025 0.0185 -4.33681e-19 0.5
0.00025 0.01875 0.0025 0.5
0.01875 0.00025 0.0025 0.5
0.00025 0.01875 -0.0025 0.5
0.01875 0.00025 -0.0025 0.5
0.019 0.0005 -0.0025 0.5
0.019 0.0005 0.0025 0.5
0.0005 0.019 0.0025 0.5
0.0005 0.019 -0.0025 0.5
0.00025 0.01925 0.0025 0.5
0.01925 0.00025 0.0025 0.5
0.00025 0.01925 -0.0025 0.5
0.01925 0.00025 -0.0025 0.5
0.0195 0.00025 1.73131e-19 0.5
0.00025 0.0195 4.33681e-19 0.5
0.00025 0.01975 0.0025 0.5
0.01975 0.00025 0.0025 0.5
0.00025 0.01975 -0.0025 0.5
0.01975 0.00025 -0.0025 0.5
0.02 0.0005 -0.0025 0.5
0.02 0.0005 0.0025 0.5
0.0005 0.02 0.0025 0.5
0.0005 0.02 -0.0025 0.5
0.02025 0.00025 0.0025 0.5
0.00025 0.02025 0.0025 0.5
0.00025 0.02025 -0.0025 0.5
0.02025 0.00025 -0.0025 0.5
0.0205 0.00025 -7.72063e-20 0.5
0.00025 0.0205 0 0.5
0.02075 0.00025 0.0025 0.5
0.00025 0.02075 -0.0025 0.5
0.00025 0.02075 0.0025 0.5
0.02075 0.00025 -0.0025 0.5
0.0005 0.021 0.0025 0.5
0.0005 0.021 -0.0025 0.5
0.021 0.000507957 -0.0025 0.5
0.021 0.000507957 0.0025 0.5
0.00025 0.02125 0.0025 0.5
0.00025 0.02125 -0.0025 0.5
0.0212667 0.000266712 0.0025 0.5
0.0212667 0.000266712 -0.0025 0.5
0.00025 0.0215 0 0.5
0.0215623 0.000282265 0 0.5
0.0217333 0.000266712 0.0025 0.5
0.0217333 0.000266712 -0.0025 0.5
0.00025 0.02175 0.0025 0.5
0.00025 0.02175 -0.0025 0.5
0.02202 0.0015 0 0.5
0.0005 0.022 0.0025 0.5
0.0005 0.022 -0.0025 0.5
0.0219895 0.001 0.0025 0.5
0.0219895 0.001 -0.0025 0.5
0.0219942 0.000994187 -0.00247093 0.5
0.0219942 0.000994187 0.00247093 0.5
0.0219949 0.00100509 0.00247454 0.5
0.0219949 0.00100509 -0.00247454 0.5
0.0219942 0.000994187 0.0025 0.5
0.0219942 0.000994187 -0.0025 0.5
0.0219949 0.00100509 0.0025 0.5
0.0219949 0.00100509 -0.0025 0.5
0.022 0.00115051 -0.0025 0.5
0.022 0.00115051 0.0025 0.5
0.0220421 0.0025 5.98762e-20 0.5
0.0220296 0.00197041 -0.00235204 0.5
0.0220296 0.00197041 0.00235204 0.5
0.0220322 0.00203217 -0.00233916 0.5
0.0220322 0.00203217 0.00233916 0.5
0.0220296 0.00197041 0.0025 0.5
0.0220296 0.00197041 -0.0025 0.5
0.0220322 0.00203217 0.0025 0.5
0.0220322 0.00203217 -0.0025 0.5
0.0220581 0.002 0.0025 0.5
0.0220581 0.002 -0.0025 0.5
0.0220741 0.0035 -3.78301e-20 0.5
0.0220545 0.00294548 -0.00222739 0.5
0.0220545 0.00294548 0.00222739 0.5
0.0220611 0.00306114 -0.00219431 0.5
0.0220611 0.00306114 0.00219431 0.5
0.0220545 0.00294548 0.0025 0.5
0.0220545 0.00294548 -0.0025 0.5
0.00025 0.02225 0.0025 0.5
0.00025 0.02225 -0.0025 0.5
0.0220611 0.00306114 0.0025 0.5
0.0220611 0.00306114 -0.0025 0.5
0.0221034 0.003 0.0025 0.5
0.0221034 0.003 -0.0025 0.5
0.00025 0.0225 0 0.5
0.0220889 0.00391111 -0.00205556 0.5
0.0220889 0.00391111 0.00205556 0.5
0.0221033 0.00410327 -0.00198364 0.5
0.0221033 0.00410327 0.00198364 0.5
0.0220889 0.00391111 0.0025 0.5
0.0220889 0.00391111 -0.0025 0.5
0.0221187 0.0045 -9.38197e-20 0.5
0.0221033 0.00410327 0.0025 0.5
0.0221033 0.00410327 -0.0025 0.5
0.0221604 0.004 0.0025 0.5
0.0221604 0.004 -0.0025 0.5
0.0221345 0.00486553 -0.00182767 0.5
0.0221345 0.00486553 0.00182767 0.5
0.0221345 0.00486553 0.0025 0.5
0.0221345 0.00486553 -0.0025 0.5
0.0221611 0.00516112 -0.00169442 0.5
0.0221611 0.00516112 0.00169442 0.5
0.0221771 0.0055 4.57931e-20 0.5
0.00025 0.02275 0.0025 0.5
0.00025 0.02275 -0.0025 0.5
0.0221611 0.00516112 0.0025 0.5
0.0221611 0.00516112 -0.0025 0.5
0.0222267 0.005 0.0025 0.5
0.0222267 0.005 -0.0025 0.5
0.0221918 0.00580817 -0.00154087 0.5
0.0221918 0.00580817 0.00154087 0.5
0.0221918 0.00580817 0.0025 0.5
0.0221918 0.00580817 -0.0025 0.5
0.0222346 0.00623458 0.0013271 0.5
0.0222346 0.00623458 -0.0013271 0.5
0.0005 0.023 0.0025 0.5
0.0005 0.023 -0.0025 0.5
0.0222968 0.006 0.0025 0.5
0.0222968 0.006 -0.0025 0.5
0.0222346 0.00623458 0.0025 0.5
0.0222346 0.00623458 -0.0025 0.5
0.0222563 0.00665994 -5.01788e-21 0.5
0.00025 0.02325 0.0025 0.5
0.00025 0.02325 -0.0025 0.5
0.0222601 0.00673991 0.0025 0.5
0.0222601 0.00673991 -0.0025 0.5
0.00025 0.0235 0 0.5
0.0223271 0.00749448 1.0842e-19 0.5
0.0223641 0.007 0.0025 0.5
0.0223641 0.007 -0.0025 0.5
0.0223184 0.00731835 0.0025 0.5
0.0223184 0.00731835 -0.0025 0.5
0.0223349 0.00766508 0.0025 0.5
0.0223349 0.00766508 -0.0025 0.5
0.00025 0.02375 0.0025 0.5
0.00025 0.02375 -0.0025 0.5
0.0224215 0.008 0.0025 0.5
0.0224215 0.008 -0.0025 0.5
0.0224032 0.00849764 -1.89138e-19 0.5
0.0223993 0.00839929 0.0025 0.5
0.0223993 0.00839929 -0.0025 0.5
0.0224064 0.00859365 0.0025 0.5
0.0224064 0.00859365 -0.0025 0.5
0.0005 0.024 0.0025 0.5
0.0005 0.024 -0.0025 0.5
0.0224613 0.009 0.0025 0.5
0.0224613 0.009 -0.0025 0.5
0.00025 0.02425 0.0025 0.5
0.00025 0.02425 -0.0025 0.5
0.0224534 0.00949956 6.41256e-19 0.5
0.0224525 0.0094525 0.0025 0.5
0.0224525 0.0094525 -0.0025 0.5
0.00025 0.0245 0 0.5
0.0224538 0.00954617 0.0025 0.5
0.0224538 0.00954617 -0.0025 0.5
0.022476 0.01 0.0025 0.5
0.022476 0.01 -0.0025 0.5
0.022454 0.0105004 6.55561e-21 0.5
0.00025 0.02475 0.0025 0.5
0.00025 0.02475 -0.0025 0.5
0.0224544 0.0104544 -0.0025 0.5
0.0224544 0.0104544 0.0025 0.5
0.0224531 0.0105469 -0.0025 0.5
0.0224531 0.0105469 0.0025 0.5
0.0005 0.025 0.0025 0.5
0.0005 0.025 -0.0025 0.5
0.0224617 0.011 -0.0025 0.5
0.0224617 0.011 0.0025 0.5
0.0224039 0.0115024 -2.51147e-19 0.5
0.0224071 0.0114071 0.0025 0.5
0.0224071 0.0114071 -0.0025 0.5
0.0224 0.0116 -0.0025 0.5
0.0224 0.0116 0.0025 0.5
0.00025 0.02525 -0.0025 0.5
0.00025 0.02525 0.0025 0.5
0.00025 0.0255 0 0.5
0.0224214 0.012 0.0025 0.5
0.0224214 0.012 -0.0025 0.5
0.022326 0.0125057 0 0.5
0.0223341 0.0123341 0.0025 0.5
0.0223341 0.0123341 -0.0025 0.5
0.022317 0.012683 0.0025 0.5
0.022317 0.012683 -0.0025 0.5
0.00025 0.02575 -0.0025 0.5
0.00025 0.02575 0.0025 0.5
0.0222531 0.0133381 0 0.5
0.0223622 0.013 0.0025 0.5
0.0223622 0.013 -0.0025 0.5
0.0222571 0.0132571 0.0025 0.5
0.0222571 0.0132571 -0.0025 0.5
0.0005 0.026 0.0025 0.5
0.0005 0.026 -0.0025 0.5
0.0222305 0.0137695 -0.00134771 0.5
0.0222305 0.0137695 0.00134771 0.5
0.0222305 0.0137695 0.0025 0.5
0.0222305 0.0137695 -0.0025 0.5
0.00025 0.02625 0.0025 0.5
0.00025 0.02625 -0.0025 0.5
0.0221875 0.0141875 -0.00156241 0.5
0.0221875 0.0141875 0.00156241 0.5
0.0222926 0.014 0.0025 0.5
0.0222926 0.014 -0.0025 0.5
0.0221875 0.0141875 0.0025 0.5
0.0221875 0.0141875 -0.0025 0.5
0.0221723 0.0145 -4.23869e-19 0.5
0.00025 0.0265 0 0.5
0.0221564 0.0148436 0.00171787 0.5
0.0221564 0.0148436 -0.00171787 0.5
0.0221564 0.0148436 0.0025 0.5
0.0221564 0.0148436 -0.0025 0.5
0.00025 0.02675 0.0025 0.5
0.00025 0.02675 -0.0025 0.5
0.0221311 0.0151311 0.00184448 0.5
0.0221311 0.0151311 -0.00184448 0.5
0.0221311 0.0151311 0.0025 0.5
0.0221311 0.0151311 -0.0025 0.5
0.022222 0.015 0.0025 0.5
0.022222 0.015 -0.0025 0.5
0.0221155 0.0155 4.85329e-19 0.5
0.0005 0.027 0.0025 0.5
0.0005 0.027 -0.0025 0.5
0.0221028 0.0158972 -0.00198609 0.5
0.0221028 0.0158972 0.00198609 0.5
0.0221028 0.0158972 0.0025 0.5
0.0221028 0.0158972 -0.0025 0.5
0.00025 0.02725 0.0025 0.5
0.00025 0.02725 -0.0025 0.5
0.0220907 0.0160907 -0.00204634 0.5
0.0220907 0.0160907 0.00204634 0.5
0.0220907 0.0160907 0.0025 0.5
0.0220907 0.0160907 -0.0025 0.5
0.0221616 0.016 0.0025 0.5
0.0221616 0.016 -0.0025 0.5
0.00025 0.0275 0 0.5
0.0220784 0.0165 1.32895e-20 0.5
0.00025 0.02775 0.0025 0.5
0.00025 0.02775 -0.0025 0.5
0.0220716 0.0169284 -0.0021422 0.5
0.0220716 0.0169284 0.0021422 0.5
0.0220716 0.0169284 0.0025 0.5
0.0220716 0.0169284 -0.0025 0.5
0.0220672 0.0170672 -0.00216393 0.5
0.0220672 0.0170672 0.00216393 0.5
0.0220672 0.0170672 0.0025 0.5
0.0220672 0.0170672 -0.0025 0.5
0.0221218 0.017 0.0025 0.5
0.0221218 0.017 -0.0025 0.5
0.0005 0.028 0.0025 0.5
0.0005 0.028 -0.0025 0.5
0.0220605 0.0175 2.647e-21 0.5
0.00025 0.02825 0.0025 0.5
0.00025 0.02825 -0.0025 0.5
0.00025 0.0285 0 0.5
0.0220595 0.0179405 -0.0022025 0.5
0.0220595 0.0179405 0.0022025 0.5
0.0220595 0.0179405 0.0025 0.5
0.0220595 0.0179405 -0.0025 0.5
0.0220589 0.0180589 -0.00220529 0.5
0.0220589 0.0180589 0.00220529 0.5
0.0221059 0.018 0.0025 0.5
0.0221059 0.018 -0.0025 0.5
0.0220589 0.0180589 0.0025 0.5
0.0220589 0.0180589 -0.0025 0.5
0.0220579 0.0185 -8.00229e-20 0.5
0.00025 0.02875 0.0025 0.5
0.00025 0.02875 -0.0025 0.5
0.0005 0.029 0.0025 0.5
0.0005 0.029 -0.0025 0.5
0.0220651 0.0189349 -0.00217462 0.5
0.0220651 0.0189349 0.00217462 0.5
0.0220651 0.0189349 0.0025 0.5
0.0220651 0.0189349 -0.0025 0.5
0.0220696 0.0190696 -0.00215203 0.5
0.0220696 0.0190696 0.00215203 0.5
0.0221186 0.019 0.0025 0.5
0.0221186 0.019 -0.0025 0.5
0.0220696 0.0190696 0.0025 0.5
0.0220696 0.0190696 -0.0025 0.5
0.00025 0.02925 0.0025 0.5
0.00025 0.02925 -0.0025 0.5
0.0220769 0.0195 -4.08015e-20 0.5
0.00025 0.0295 -1.6263e-19 0.5
0.0221031 0.0198969 -0.00198464 0.5
0.0221031 0.0198969 0.00198464 0.5
0.0221031 0.0198969 0.0025 0.5
0.0221031 0.0198969 -0.0025 0.5
0.00025 0.02975 0.0025 0.5
0.00025 0.02975 -0.0025 0.5
0.0221904 0.02 0.0025 0.5
0.0221904 0.02 -0.0025 0.5
0.0221369 0.0201369 0.00181547 0.5
0.0221369 0.0201369 -0.00181547 0.5
0.0221369 0.0201369 0.0025 0.5
0.0221369 0.0201369 -0.0025 0.5
0.0005 0.03 0.0025 0.5
0.0005 0.03 -0.0025 0.5
0.0221644 0.0205 5.2297e-20 0.5
0.00025 0.03025 0.0025 0.5
0.00025 0.03025 -0.0025 0.5
0.0222315 0.0207685 0.00134263 0.5
0.0222315 0.0207685 -0.00134263 0.5
0.00025 0.0305 0 0.5
0.0222315 0.0207685 0.0025 0.5
0.0222315 0.0207685 -0.0025 0.5
0.0224353 0.021 -0.0025 0.5
0.0224353 0.021 0.0025 0.5
0.00025 0.03075 0.0025 0.5
0.00025 0.03075 -0.0025 0.5
0.0005 0.031 0.0025 0.5
0.0005 0.031 -0.0025 0.5
0.0226342 0.0213441 5.49488e-19 0.5
0.0226519 0.0213481 0.0025 0.5
0.0226519 0.0213481 -0.0025 0.5
0.00025 0.03125 0.0025 0.5
0.00025 0.03125 -0.0025 0.5
0.00025 0.0315 0 0.5
0.0228213 0.0218213 0.00160656 0.5
0.0228213 0.0218213 -0.00160656 0.5
0.0228213 0.0218213 0.0025 0.5
0.0228213 0.0218213 -0.0025 0.5
0.0228556 0.022 0.0025 0.5
0.0228556 0.022 -0.0025 0.5
0.00025 0.03175 0.0025 0.5
0.00025 0.03175 -0.0025 0.5
0.0229398 0.0220602 0.00219877 0.5
0.0229398 0.0220602 -0.00219877 0.5
0.0229398 0.0220602 0.0025 0.5
0.0229398 0.0220602 -0.0025 0.5
0.0005 0.032 0.0025 0.5
0.0005 0.032 -0.0025 0.5
0.023 0.0222581 -0.0025 0.5
0.023 0.0222581 0.0025 0.5
0.0230573 0.0225 -1.55655e-18 0.5
0.00025 0.03225 0.0025 0.5
0.00025 0.03225 -0.0025 0.5
0.00025 0.0325 0 0.5
0.0231657 0.0228343 0.0016713 0.5
0.0231657 0.0228343 -0.0016713 0.5
0.0231657 0.0228343 0.0025 0.5
0.0231657 0.0228343 -0.0025 0.5
0.00025 0.03275 0.0025 0.5
0.00025 0.03275 -0.0025 0.5
0.0233939 0.023 0.0025 0.5
0.0233939 0.023 -0.0025 0.5
0.0005 0.033 0.0025 0.5
0.0005 0.033 -0.0025 0.5
0.0236713 0.0233207 5.38868e-19 0.5
0.0236895 0.0233105 0.0025 0.5
0.0236895 0.0233105 -0.0025 0.5
0.00025 0.03325 0.0025 0.5
0.00025 0.03325 -0.0025 0.5
0.00025 0.0335 0 0.5
0.00025 0.03375 0.0025 0.5
0.00025 0.03375 -0.0025 0.5
0.0239335 0.0239335 -0.00216756 0.5
0.0239335 0.0239335 0.00216756 0.5
0.0239335 0.0239335 0.0025 0.5
0.0239335 0.0239335 -0.0025 0.5
0.0239369 0.024 -0.0025 0.5
0.0239369 0.024 0.0025 0.5
0.0239732 0.0240268 0.0023658 0.5
0.0239732 0.0240268 -0.0023658 0.5
0.0239732 0.0240268 0.0025 0.5
0.0239732 0.0240268 -0.0025 0.5
0.024 0.0240863 -0.0025 0.5
0.024 0.0240863 0.0025 0.5
0.0005 0.034 0.0025 0.5
0.0005 0.034 -0.0025 0.5
0.00025 0.03425 0.0025 0.5
0.00025 0.03425 -0.0025 0.5
0.00025 0.0345 0 0.5
0.0242716 0.0247284 7.56114e-21 0.5
0.0242508 0.0247492 0.0025 0.5
0.0242508 0.0247492 -0.0025 0.5
0.00025 0.03475 0.0025 0.5
0.00025 0.03475 -0.0025 0.5
0.0005 0.035 0.0025 0.5
0.0005 0.035 -0.0025 0.5
0.0246015 0.025 -0.0025 0.5
0.0246015 0.025 0.0025 0.5
0.00025 0.03525 0.0025 0.5
0.00025 0.03525 -0.0025 0.5
0.0248577 0.0251423 0.00178831 0.5
0.0248577 0.0251423 -0.00178831 0.5
0.0248577 0.0251423 0.0025 0.5
0.0248577 0.0251423 -0.0025 0.5
0.00025 0.0355 0 0.5
0.0250012 0.0255 5.99165e-20 0.5
0.00025 0.03575 0.0025 0.5
0.00025 0.03575 -0.0025 0.5
0.025 0.0256905 -0.0025 0.5
0.025 0.0256905 0.0025 0.5
0.0005 0.036 0.0025 0.5
0.0005 0.036 -0.0025 0.5
0.025076 0.025924 -0.00212 0.5
0.025076 0.025924 0.00212 0.5
0.025076 0.025924 0.0025 0.5
0.025076 0.025924 -0.0025 0.5
0.0251784 0.026 0.0025 0.5
0.0251784 0.026 -0.0025 0.5
0.00025 0.03625 0.0025 0.5
0.00025 0.03625 -0.0025 0.5
0.0251898 0.0261898 -0.00155076 0.5
0.0251898 0.0261898 0.00155076 0.5
0.0251898 0.0261898 0.0025 0.5
0.0251898 0.0261898 -0.0025 0.5
0.00025 0.0365 0 0.5
0.0253621 0.0266379 -1.97694e-21 0.5
0.00025 0.03675 0.0025 0.5
0.00025 0.03675 -0.0025 0.5
0.0253496 0.0266504 0.0025 0.5
0.0253496 0.0266504 -0.0025 0.5
0.0005 0.037 0.0025 0.5
0.0005 0.037 -0.0025 0.5
0.00025 0.03725 -0.0025 0.5
0.00025 0.03725 0.0025 0.5
0.0256902 0.027 0.0025 0.5
0.0256902 0.027 -0.0025 0.5
0.00025 0.0375 -6.77626e-19 0.5
0.0258835 0.0271165 0.00191731 0.5
0.0258835 0.0271165 -0.00191731 0.5
0.0258835 0.0271165 0.0025 0.5
0.0258835 0.0271165 -0.0025 0.5
0.00025 0.03775 0.0025 0.5
0.00025 0.03775 -0.0025 0.5
0.0260197 0.0275 -7.18449e-19 0.5
0.026 0.027617 -0.0025 0.5
0.026 0.027617 0.0025 0.5
0.0005 0.038 0.0025 0.5
0.0005 0.038 -0.0025 0.5
0.0260848 0.0279152 0.00207616 0.5
0.0260848 0.0279152 -0.00207616 0.5
0.0260848 0.0279152 0.0025 0.5
0.0260848 0.0279152 -0.0025 0.5
0.00025 0.03825 0.0025 0.5
0.00025 0.03825 -0.0025 0.5
0.0261887 0.028 0.0025 0.5
0.0261887 0.028 -0.0025 0.5
0.00025 0.0385 8.67362e-19 0.5
0.0261851 0.0281851 0.0015746 0.5
0.0261851 0.0281851 -0.0015746 0.5
0.0261851 0.0281851 -0.0025 0.5
0.0261851 0.0281851 0.0025 0.5
0.00025 0.03875 0.0025 0.5
0.00025 0.03875 -0.0025 0.5
0.0263515 0.0286485 1.15096e-18 0.5
0.026338 0.028662 -0.0025 0.5
0.026338 0.028662 0.0025 0.5
0.0005 0.039 0.0025 0.5
0.0005 0.039 -0.0025 0.5
0.00025 0.03925 -0.0025 0.5
0.00025 0.03925 0.0025 0.5
0.0266706 0.029 0.0025 0.5
0.0266706 0.029 -0.0025 0.5
0.00025 0.0395 0 0.5
0.0268762 0.0291238 0.00188119 0.5
0.0268762 0.0291238 -0.00188119 0.5
0.0268762 0.0291238 0.0025 0.5
0.0268762 0.0291238 -0.0025 0.5
0.00025 0.03975 -0.0025 0.5
0.00025 0.03975 0.0025 0.5
0.0270013 0.0295 2.95717e-20 0.5
0.0005 0.04 0.0025 0.5
0.0005 0.04 -0.0025 0.5
0.027 0.0297822 -0.0025 0.5
0.027 0.0297822 0.0025 0.5
0.00025 0.04025 0.0025 0.5
0.00025 0.04025 -0.0025 0.5
0.0270422 0.0299578 -0.00228917 0.5
0.0270422 0.0299578 0.00228917 0.5
0.0270422 0.0299578 0.0025 0.5
0.0270422 0.0299578 -0.0025 0.5
0.0270916 0.03 0.0025 0.5
0.0270916 0.03 -0.0025 0.5
0.00025 0.0405 6.77626e-19 0.5
0.0270627 0.0300627 -0.00218643 0.5
0.0270627 0.0300627 0.00218643 0.5
0.0270627 0.0300627 -0.0025 0.5
0.0270627 0.0300627 0.0025 0.5
0.0271102 0.0305 -1.73731e-20 0.5
0.00025 0.04075 0.0025 0.5
0.00025 0.04075 -0.0025 0.5
0.0005 0.041 -0.0025 0.5
0.0005 0.041 0.0025 0.5
0.0271755 0.0308245 0.00162274 0.5
0.0271755 0.0308245 -0.00162274 0.5
0.0271755 0.0308245 0.0025 0.5
0.0271755 0.0308245 -0.0025 0.5
0.00025 0.04125 0.0025 0.5
0.00025 0.04125 -0.0025 0.5
0.0273453 0.031 -0.0025 0.5
0.0273453 0.031 0.0025 0.5
0.00025 0.0415 -6.77626e-19 0.5
0.00025 0.04175 0.0025 0.5
0.00025 0.04175 -0.0025 0.5
0.0275214 0.0315022 1.08755e-19 0.5
0.0275149 0.0314851 -0.0025 0.5
0.0275149 0.0314851 0.0025 0.5
0.0275382 0.0315382 -0.0025 0.5
0.0275382 0.0315382 0.0025 0.5
0.0005 0.042 0.0025 0.5
0.0005 0.042 -0.0025 0.5
0.00025 0.04225 0.0025 0.5
0.00025 0.04225 -0.0025 0.5
0.0277562 0.032 0.0025 0.5
0.0277562 0.032 -0.0025 0.5
0.00025 0.0425 0 0.5
0.0279021 0.0320979 0.00201047 0.5
0.0279021 0.0320979 -0.00201047 0.5
0.0279021 0.0320979 0.0025 0.5
0.0279021 0.0320979 -0.0025 0.5
0.00025 0.04275 0.0025 0.5
0.00025 0.04275 -0.0025 0.5
0.0280015 0.0325 0 0.5
0.0005 0.043 0.0025 0.5
0.0005 0.043 -0.0025 0.5
0.028 0.0328021 -0.0025 0.5
0.028 0.0328021 0.0025 0.5
0.00025 0.04325 0.0025 0.5
0.00025 0.04325 -0.0025 0.5
0.0280285 0.0329715 -0.00235757 0.5
0.0280285 0.0329715 0.00235757 0.5
0.0280285 0.0329715 0.0025 0.5
0.0280285 0.0329715 -0.0025 0.5
0.0280601 0.033 0.0025 0.5
0.0280601 0.033 -0.0025 0.5
0.0280364 0.0330364 -0.00231817 0.5
0.0280364 0.0330364 0.00231817 0.5
0.0280364 0.0330364 0.0025 0.5
0.0280364 0.0330364 -0.0025 0.5
0.00025 0.0435 0 0.5
0.0280664 0.0335 -5.2859e-20 0.5
0.00025 0.04375 0.0025 0.5
0.00025 0.04375 -0.0025 0.5
0.0005 0.044 0.0025 0.5
0.0005 0.044 -0.0025 0.5
0.0281046 0.0338954 0.00197683 0.5
0.0281046 0.0338954 -0.00197683 0.5
0.0281046 0.0338954 0.0025 0.5
0.0281046 0.0338954 -0.0025 0.5
0.0282026 0.034 -0.0025 0.5
0.0282026 0.034 0.0025 0.5
0.0281617 0.0341617 -0.00169127 0.5
0.0281617 0.0341617 0.00169127 0.5
0.00025 0.04425 0.0025 0.5
0.00025 0.04425 -0.0025 0.5
0.0281617 0.0341617 -0.0025 0.5
0.0281617 0.0341617 0.0025 0.5
0.00025 0.0445 -8.67362e-19 0.5
0.0282024 0.0345 9.98646e-19 0.5
0.0282325 0.0347675 -0.00133739 0.5
0.0282325 0.0347675 0.00133739 0.5
0.00025 0.04475 0.0025 0.5
0.00025 0.04475 -0.0025 0.5
0.0282325 0.0347675 0.0025 0.5
0.0282325 0.0347675 -0.0025 0.5
0.0005 0.045 0.0025 0.5
0.0005 0.045 -0.0025 0.5
0.0283684 0.035 0.0025 0.5
0.0283684 0.035 -0.0025 0.5
0.00025 0.04525 0.0025 0.5
0.00025 0.04525 -0.0025 0.5
0.028391 0.035391 0.0025 0.5
0.028391 0.035391 -0.0025 0.5
0.0284127 0.0355309 -2.57303e-18 0.5
0.00025 0.0455 1.49078e-18 0.5
0.0284166 0.0355834 0.0025 0.5
0.0284166 0.0355834 -0.0025 0.5
0.00025 0.04575 0.0025 0.5
0.00025 0.04575 -0.0025 0.5
0.028513 0.036 0.0025 0.5
0.028513 0.036 -0.0025 0.5
0.0005 0.046 -0.0025 0.5
0.0005 0.046 0.0025 0.5
0.00025 0.04625 0.0025 0.5
0.00025 0.04625 -0.0025 0.5
0.0286204 0.0363796 0.0025 0.5
0.0286204 0.0363796 -0.0025 0.5
0.0286326 0.0365077 1.54174e-19 0.5
0.00025 0.0465 -8.67362e-19 0.5
0.0286435 0.0366435 -0.0025 0.5
0.0286435 0.0366435 0.0025 0.5
0.00025 0.04675 0.0025 0.5
0.00025 0.04675 -0.0025 0.5
0.0286163 0.037 0.0025 0.5
0.0286163 0.037 -0.0025 0.5
0.0005 0.047 0.0025 0.5
0.0005 0.047 -0.0025 0.5
0.0287237 0.0372763 0.0025 0.5
0.0287237 0.0372763 -0.0025 0.5
0.0287336 0.0375055 1.79853e-18 0.5
0.00025 0.04725 0.0025 0.5
0.00025 0.04725 -0.0025 0.5
0.00025 0.0475 0 0.5
0.0287403 0.0377403 -0.0025 0.5
0.0287403 0.0377403 0.0025 0.5
0.0286643 0.038 -0.0025 0.5
0.0286643 0.038 0.0025 0.5
0.00025 0.04775 0.0025 0.5
0.00025 0.04775 -0.0025 0.5
0.0287539 0.0382461 0.00126965 0.5
0.0287539 0.0382461 -0.00126965 0.5
0.0287539 0.0382461 0.0025 0.5
0.0287539 0.0382461 -0.0025 0.5
0.0005 0.048 0.0025 0.5
0.0005 0.048 -0.0025 0.5
0.0287524 0.0386666 -9.82932e-19 0.5
0.0287499 0.0387499 -0.0025 0.5
0.0287499 0.0387499 0.0025 0.5
0.00025 0.04825 0.0025 0.5
0.00025 0.04825 -0.0025 0.5
0.0286534 0.039 0.0025 0.5
0.0286534 0.039 -0.0025 0.5
0.00025 0.0485 0 0.5
0.0287175 0.0392825 -0.0025 0.5
0.0287175 0.0392825 0.0025 0.5
0.00025 0.04875 0.0025 0.5
0.00025 0.04875 -0.0025 0.5
0.0287082 0.039493 -1.71882e-19 0.5
0.0286965 0.0396965 -0.0025 0.5
0.0286965 0.0396965 0.0025 0.5
0.0005 0.049 0.0025 0.5
0.0005 0.049 -0.0025 0.5
0.0285877 0.04 0.0025 0.5
0.0285877 0.04 -0.0025 0.5
0.00025 0.04925 0.0025 0.5
0.00025 0.04925 -0.0025 0.5
0.00025 0.0495 0 0.5
0.0285846 0.0404154 0.0025 0.5
0.0285846 0.0404154 -0.0025 0.5
0.0285708 0.0405263 -1.4789e-20 0.5
0.028569 0.040569 -0.0025 0.5
0.028569 0.040569 0.0025 0.5
0.00025 0.04975 0.0025 0.5
0.00025 0.04975 -0.0025 0.5
0.0284761 0.041 0.0025 0.5
0.0284761 0.041 -0.0025 0.5
0.0005 0.05 0.0025 0.5
0.0005 0.05 -0.0025 0.5
0.0283631 0.0413631 0.0025 0.5
0.0283631 0.0413631 -0.0025 0.5
0.0283452 0.0415128 -1.18385e-18 0.5
0.00025 0.05025 -0.0025 0.5
0.00025 0.05025 0.0025 0.5
0.0283247 0.0416753 0.0025 0.5
0.0283247 0.0416753 -0.0025 0.5
0.00025 0.0505 1.49078e-18 0.5
0.0283324 0.042 0.0025 0.5
0.0283324 0.042 -0.0025 0.5
0.0282019 0.0422019 -0.00149065 0.5
0.0282019 0.0422019 0.00149065 0.5
0.00025 0.05075 -0.0025 0.5
0.00025 0.05075 0.0025 0.5
0.0282019 0.0422019 0.0025 0.5
0.0282019 0.0422019 -0.0025 0.5
0.0281707 0.0425 1.56928e-18 0.5
0.0005 0.051 -0.0025 0.5
0.0005 0.051 0.0025 0.5
0.0281332 0.0428668 -0.00183394 0.5
0.0281332 0.0428668 0.00183394 0.5
0.00025 0.05125 0.0025 0.5
0.00025 0.05125 -0.0025 0.5
0.0281332 0.0428668 0.0025 0.5
0.0281332 0.0428668 -0.0025 0.5
0.0281783 0.043 0.0025 0.5
0.0281783 0.043 -0.0025 0.5
0.0280915 0.0430915 -0.00204245 0.5
0.0280915 0.0430915 0.00204245 0.5
0.0280915 0.0430915 -0.0025 0.5
0.0280915 0.0430915 0.0025 0.5
0.00025 0.0515 -1.49078e-18 0.5
0.0280568 0.0435 3.412e-20 0.5
0.00025 0.05175 0.0025 0.5
0.00025 0.05175 -0.0025 0.5
0.0005 0.052 0.0025 0.5
0.0005 0.052 -0.0025 0.5
0.028 0.0438826 -0.0025 0.5
0.028 0.0438826 0.0025 0.5
0.0279884 0.0439884 -0.00244206 0.5
0.0279884 0.0439884 0.00244206 0.5
0.0279884 0.0439884 0.0025 0.5
0.0279884 0.0439884 -0.0025 0.5
0.027975 0.044 0.0025 0.5
0.027975 0.044 -0.0025 0.5
0.0279836 0.0440164 0.00241816 0.5
0.0279836 0.0440164 -0.00241816 0.5
0.0279836 0.0440164 -0.0025 0.5
0.0279836 0.0440164 0.0025 0.5
0.00025 0.05225 0.0025 0.5
0.00025 0.05225 -0.0025 0.5
0.00025 0.0525 0 0.5
0.0279121 0.0445 -6.63076e-21 0.5
0.0278319 0.0448319 0.00165974 0.5
0.0278319 0.0448319 -0.00165974 0.5
0.00025 0.05275 0.0025 0.5
0.00025 0.05275 -0.0025 0.5
0.0278319 0.0448319 0.0025 0.5
0.0278319 0.0448319 -0.0025 0.5
0.0276451 0.045 0.0025 0.5
0.0276451 0.045 -0.0025 0.5
0.0005 0.053 0.0025 0.5
0.0005 0.053 -0.0025 0.5
0.0274036 0.0454949 -7.14722e-20 0.5
0.0274213 0.0454213 0.0025 0.5
0.0274213 0.0454213 -0.0025 0.5
0.0273644 0.0456356 0.0025 0.5
0.0273644 0.0456356 -0.0025 0.5
0.00025 0.05325 0.0025 0.5
0.00025 0.05325 -0.0025 0.5
0.00025 0.0535 0 0.5
0.0273239 0.046 0.0025 0.5
0.0273239 0.046 -0.0025 0.5
0.0271784 0.0461784 0.00160804 0.5
0.0271784 0.0461784 -0.00160804 0.5
0.0271784 0.0461784 0.0025 0.5
0.0271784 0.0461784 -0.0025 0.5
0.00025 0.05375 0.0025 0.5
0.00025 0.05375 -0.0025 0.5
0.0271314 0.0465 1.0685e-18 0.5
0.0005 0.054 0.0025 0.5
0.0005 0.054 -0.0025 0.5
0.0270826 0.0469174 -0.00208692 0.5
0.0270826 0.0469174 0.00208692 0.5
0.0270826 0.0469174 0.0025 0.5
0.0270826 0.0469174 -0.0025 0.5
0.00025 0.05425 0.0025 0.5
0.00025 0.05425 -0.0025 0.5
0.0271156 0.047 0.0025 0.5
0.0271156 0.047 -0.0025 0.5
0.027054 0.047054 0.00222981 0.5
0.027054 0.047054 -0.00222981 0.5
0.027054 0.047054 0.0025 0.5
0.027054 0.047054 -0.0025 0.5
0.00025 0.0545 0 0.5
0.027 0.0473234 0.0025 0.5
0.027 0.0473234 -0.0025 0.5
0.0270118 0.0475 -1.38787e-18 0.5
0.00025 0.05475 0.0025 0.5
0.00025 0.05475 -0.0025 0.5
0.0269026 0.0479026 -0.0020132 0.5
0.0269026 0.0479026 0.0020132 0.5
0.0269026 0.0479026 0.0025 0.5
0.0269026 0.0479026 -0.0025 0.5
0.0267554 0.048 -0.0025 0.5
0.0267554 0.048 0.0025 0.5
0.0005 0.055 0.0025 0.5
0.0005 0.055 -0.0025 0.5
0.0264875 0.048501 2.71051e-21 0.5
0.00025 0.05525 0.0025 0.5
0.00025 0.05525 -0.0025 0.5
0.0264912 0.0484912 0.0025 0.5
0.0264912 0.0484912 -0.0025 0.5
0.0264797 0.0485203 0.0025 0.5
0.0264797 0.0485203 -0.0025 0.5
0.00025 0.0555 0 0.5
0.0263164 0.049 0.0025 0.5
0.0263164 0.049 -0.0025 0.5
0.0261525 0.0491525 -0.00173742 0.5
0.0261525 0.0491525 0.00173742 0.5
0.0261525 0.0491525 0.0025 0.5
0.0261525 0.0491525 -0.0025 0.5
0.00025 0.05575 0.0025 0.5
0.00025 0.05575 -0.0025 0.5
0.0260811 0.0495 0 0.5
0.0005 0.056 0.0025 0.5
0.0005 0.056 -0.0025 0.5
0.00025 0.05625 0.0025 0.5
0.00025 0.05625 -0.0025 0.5
0.0260018 0.0499982 -0.0024912 0.5
0.0260018 0.0499982 0.0024912 0.5
0.0260018 0.0499982 0.0025 0.5
0.0260018 0.0499982 -0.0025 0.5
0.0260027 0.05 0.0025 0.5
0.0260027 0.05 -0.0025 0.5
0.0260013 0.0500013 -0.00249365 0.5
0.0260013 0.0500013 0.00249365 0.5
0.0260013 0.0500013 0.0025 0.5
0.0260013 0.0500013 -0.0025 0.5
0.026 0.0500063 -0.0025 0.5