# f_l  POINT_DATA 1883
#  x  y  z  f_l
0.000375 0.000375 0 0.5
0.0015 0.00025 5.72608e-20 0.5
0.00025 0.0015 0 0.5
0.0025 0.00025 -1.6386e-20 0.5
0.00025 0.0025 1.89735e-19 0.5
0.00025 0.00025 0.0025 0.5
0.00025 0.00025 -0.0025 0.5
0.00075 0.00025 0.0025 0.5
0.00025 0.00075 0.0025 0.5
0.00025 0.00075 -0.0025 0.5
0.00075 0.00025 -0.0025 0.5
0.001 0.0005 -0.0025 0.5
0.001 0.0005 0.0025 0.5
0.0005 0.001 0.0025 0.5
0.0005 0.001 -0.0025 0.5
0.00125 0.00025 0.0025 0.5
0.00025 0.00125 -0.0025 0.5
0.00125 0.00025 -0.0025 0.5
0.00025 0.00125 0.0025 0.5
0.00175 0.00025 0.0025 0.5
0.00025 0.00175 -0.0025 0.5
0.00175 0.00025 -0.0025 0.5
0.00025 0.00175 0.0025 0.5
0.002 0.0005 -0.0025 0.5
0.002 0.0005 0.0025 0.5
0.0005 0.002 0.0025 0.5
0.0005 0.002 -0.0025 0.5
0.00025 0.00225 0.0025 0.5
0.00025 0.00225 -0.0025 0.5
0.00225 0.00025 0.0025 0.5
0.00225 0.00025 -0.0025 0.5
0.0035 0.00025 -1.38704e-19 0.5
0.00025 0.0035 -1.89735e-19 0.5
0.00025 0.00275 0.0025 0.5
0.00025 0.00275 -0.0025 0.5
0.00275 0.00025 0.0025 0.5
0.00275 0.00025 -0.0025 0.5
0.0005 0.003 -0.0025 0.5
0.003 0.0005 -0.0025 0.5
0.003 0.0005 0.0025 0.5
0.0005 0.003 0.0025 0.5
0.00025 0.00325 0.0025 0.5
0.00325 0.00025 0.0025 0.5
0.00025 0.00325 -0.0025 0.5
0.00325 0.00025 -0.0025 0.5
0.0045 0.00025 -5.72243e-20 0.5
0.00025 0.0045 0 0.5
0.00025 0.00375 0.0025 0.5
0.00375 0.00025 0.0025 0.5
0.00025 0.00375 -0.0025 0.5
0.00375 0.00025 -0.0025 0.5
0.004 0.0005 -0.0025 0.5
0.004 0.0005 0.0025 0.5
0.0005 0.004 0.0025 0.5
0.0005 0.004 -0.0025 0.5
0.00025 0.00425 0.0025 0.5
0.00425 0.00025 0.0025 0.5
0.00025 0.00425 -0.0025 0.5
0.00425 0.00025 -0.0025 0.5
0.00475 0.00025 0.0025 0.5
0.00475 0.00025 -0.0025 0.5
0.00025 0.00475 0.0025 0.5
0.00025 0.00475 -0.0025 0.5
0.00025 0.0055 0 0.5
0.0055 0.00025 -2.36936e-21 0.5
0.005 0.0005 -0.0025 0.5
0.005 0.0005 0.0025 0.5
0.0005 0.005 0.0025 0.5
0.0005 0.005 -0.0025 0.5
0.00025 0.00525 -0.0025 0.5
0.00525 0.00025 0.0025 0.5
0.00025 0.00525 0.0025 0.5
0.00525 0.00025 -0.0025 0.5
0.00025 0.00575 -0.0025 0.5
0.00575 0.00025 0.0025 0.5
0.00575 0.00025 -0.0025 0.5
0.00025 0.00575 0.0025 0.5
0.0065 0.00025 5.2773e-20 0.5
0.00025 0.0065 0 0.5
0.0005 0.006 0.0025 0.5
0.0005 0.006 -0.0025 0.5
0.006 0.0005 -0.0025 0.5
0.006 0.0005 0.0025 0.5
0.00625 0.00025 0.0025 0.5
0.00025 0.00625 0.0025 0.5
0.00025 0.00625 -0.0025 0.5
0.00625 0.00025 -0.0025 0.5
0.00025 0.00675 0.0025 0.5
0.00675 0.00025 0.0025 0.5
0.00025 0.00675 -0.0025 0.5
0.00675 0.00025 -0.0025 0.5
0.0005 0.007 0.0025 0.5
0.0005 0.007 -0.0025 0.5
0.007 0.000606194 -0.0025 0.5
0.007 0.000606194 0.0025 0.5
0.00025 0.0075 -2.43945e-19 0.5
0.00753137 0.000491693 5.16019e-20 0.5
0.00025 0.00725 0.0025 0.5
0.00025 0.00725 -0.0025 0.5
0.00746599 0.00046599 -0.0025 0.5
0.00746599 0.00046599 0.0025 0.5
0.00753401 0.00046599 -0.0025 0.5
0.00753401 0.00046599 0.0025 0.5
0.0078445 0.0015 -2.48178e-20 0.5
0.0075862 0.000586199 -0.0025 0.5
0.0075862 0.000586199 0.0025 0.5
0.0078 0.0012 0.00150001 0.5
0.0078 0.0012 -0.00150001 0.5
0.00764964 0.001 -0.0025 0.5
0.00764964 0.001 0.0025 0.5
0.00025 0.00775 0.0025 0.5
0.00025 0.00775 -0.0025 0.5
0.00785236 0.00185236 -0.00176182 0.5
0.00785236 0.00185236 0.00176182 0.5
0.0078725 0.0025 -1.85244e-20 0.5
0.0078 0.0012 -0.0025 0.5
0.0078 0.0012 0.0025 0.5
0.00786471 0.00213529 0.00182356 0.5
0.00786471 0.00213529 -0.00182356 0.5
0.0005 0.008 0.0025 0.5
0.0005 0.008 -0.0025 0.5
0.0077798 0.002 0.0025 0.5
0.0077798 0.002 -0.0025 0.5
0.00785236 0.00185236 -0.0025 0.5
0.00785236 0.00185236 0.0025 0.5
0.00025 0.0085 2.43945e-19 0.5
0.00786471 0.00213529 0.0025 0.5
0.00786471 0.00213529 -0.0025 0.5
0.0078789 0.0028789 -0.00189449 0.5
0.0078789 0.0028789 0.00189449 0.5
0.00025 0.00825 0.0025 0.5
0.00025 0.00825 -0.0025 0.5
0.007893 0.0035 -1.59906e-19 0.5
0.00788668 0.00311332 -0.00193341 0.5
0.00788668 0.00311332 0.00193341 0.5
0.00781027 0.003 0.0025 0.5
0.00781027 0.003 -0.0025 0.5
0.0078789 0.0028789 -0.0025 0.5
0.0078789 0.0028789 0.0025 0.5
0.00788668 0.00311332 0.0025 0.5
0.00788668 0.00311332 -0.0025 0.5
0.00789856 0.00389856 -0.0019928 0.5
0.00789856 0.00389856 0.0019928 0.5
0.00790949 0.0045 2.55033e-19 0.5
0.00025 0.00875 -0.0025 0.5
0.00025 0.00875 0.0025 0.5
0.007904 0.004096 0.00201999 0.5
0.007904 0.004096 -0.00201999 0.5
0.00783522 0.004 0.0025 0.5
0.00783522 0.004 -0.0025 0.5
0.00789856 0.00389856 0.0025 0.5
0.00789856 0.00389856 -0.0025 0.5
0.007904 0.004096 0.0025 0.5
0.007904 0.004096 -0.0025 0.5
0.0005 0.009 0.0025 0.5
0.0005 0.009 -0.0025 0.5
0.00025 0.0095 0 0.5
0.00791435 0.00491435 -0.00207176 0.5
0.00791435 0.00491435 0.00207176 0.5
0.00025 0.00925 -0.0025 0.5
0.00025 0.00925 0.0025 0.5
0.00791824 0.00508176 -0.00209118 0.5
0.00791824 0.00508176 0.00209118 0.5
0.00785666 0.005 -0.0025 0.5
0.00785666 0.005 0.0025 0.5
0.00792303 0.0055 -8.13477e-20 0.5
0.00791435 0.00491435 -0.0025 0.5
0.00791435 0.00491435 0.0025 0.5
0.00791824 0.00508176 -0.0025 0.5
0.00791824 0.00508176 0.0025 0.5
0.00025 0.00975 0.0025 0.5
0.00025 0.00975 -0.0025 0.5
0.00792779 0.00592779 -0.00213893 0.5
0.00792779 0.00592779 0.00213893 0.5
0.00792779 0.00592779 -0.0025 0.5
0.00792779 0.00592779 0.0025 0.5
0.00787623 0.006 0.0025 0.5
0.00787623 0.006 -0.0025 0.5
0.00793089 0.00606911 0.00215445 0.5
0.00793089 0.00606911 -0.00215445 0.5
0.00793557 0.0065 4.10146e-20 0.5
0.00793089 0.00606911 -0.0025 0.5
0.00793089 0.00606911 0.0025 0.5
0.0005 0.01 0.0025 0.5
0.0005 0.01 -0.0025 0.5
0.00025 0.0105 0 0.5
0.00025 0.01025 -0.0025 0.5
0.00025 0.01025 0.0025 0.5
0.00794005 0.00694005 -0.00220026 0.5
0.00794005 0.00694005 0.00220026 0.5
0.00794005 0.00694005 0.0025 0.5
0.00794005 0.00694005 -0.0025 0.5
0.00789487 0.007 0.0025 0.5
0.00789487 0.007 -0.0025 0.5
0.00794242 0.00705758 0.0022121 0.5
0.00794242 0.00705758 -0.0022121 0.5
0.00794242 0.00705758 0.0025 0.5
0.00794242 0.00705758 -0.0025 0.5
0.00794683 0.0075 1.9884e-20 0.5
0.00025 0.01075 -0.0025 0.5
0.00025 0.01075 0.0025 0.5
0.0005 0.011 0.0025 0.5
0.0005 0.011 -0.0025 0.5
0.00795015 0.00795015 -0.00225076 0.5
0.00795015 0.00795015 0.00225076 0.5
0.00025 0.0115 0 0.5
0.00795015 0.00795015 0.0025 0.5
0.00795015 0.00795015 -0.0025 0.5
0.00791055 0.008 -0.0025 0.5
0.00791055 0.008 0.0025 0.5
0.00025 0.01125 0.0025 0.5
0.00025 0.01125 -0.0025 0.5
0.00795159 0.00804841 0.00225796 0.5
0.00795159 0.00804841 -0.00225796 0.5
0.00795159 0.00804841 0.0025 0.5
0.00795159 0.00804841 -0.0025 0.5
0.00795487 0.0085 4.31779e-19 0.5
0.00025 0.01175 0.0025 0.5
0.00025 0.01175 -0.0025 0.5
0.00795846 0.00895846 -0.00229232 0.5
0.00795846 0.00895846 0.00229232 0.5
0.00795846 0.00895846 0.0025 0.5
0.00795846 0.00895846 -0.0025 0.5
0.0079244 0.009 0.0025 0.5
0.0079244 0.009 -0.0025 0.5
0.00795974 0.00904026 0.00229868 0.5
0.00795974 0.00904026 -0.00229868 0.5
0.0005 0.012 0.0025 0.5
0.0005 0.012 -0.0025 0.5
0.00795974 0.00904026 0.0025 0.5
0.00795974 0.00904026 -0.0025 0.5
0.00796328 0.0095 -4.36997e-19 0.5
0.00025 0.0125 0 0.5
0.00025 0.01225 -0.0025 0.5
0.00025 0.01225 0.0025 0.5
0.00796671 0.00996671 -0.00233355 0.5
0.00796671 0.00996671 0.00233355 0.5
0.00025 0.01275 -0.0025 0.5
0.00025 0.01275 0.0025 0.5
0.00796671 0.00996671 0.0025 0.5
0.00796671 0.00996671 -0.0025 0.5
0.00793843 0.01 0.0025 0.5
0.00793843 0.01 -0.0025 0.5
0.00796767 0.0100323 0.00233833 0.5
0.00796767 0.0100323 -0.00233833 0.5
0.00796767 0.0100323 0.0025 0.5
0.00796767 0.0100323 -0.0025 0.5
0.00797105 0.0105 2.09955e-19 0.5
0.0005 0.013 0.0025 0.5
0.0005 0.013 -0.0025 0.5
0.00025 0.01325 0.0025 0.5
0.00025 0.01325 -0.0025 0.5
0.00025 0.0135 0 0.5
0.0079737 0.0109737 0.00236848 0.5
0.0079737 0.0109737 -0.00236848 0.5
0.0079737 0.0109737 0.0025 0.5
0.0079737 0.0109737 -0.0025 0.5
0.00795055 0.011 0.0025 0.5
0.00795055 0.011 -0.0025 0.5
0.00797427 0.0110257 0.00237137 0.5
0.00797427 0.0110257 -0.00237137 0.5
0.00797427 0.0110257 0.0025 0.5
0.00797427 0.0110257 -0.0025 0.5
0.00025 0.01375 0.0025 0.5
0.00025 0.01375 -0.0025 0.5
0.00797689 0.0115 -3.64067e-20 0.5
0.0005 0.014 0.0025 0.5
0.0005 0.014 -0.0025 0.5
0.00025 0.01425 0.0025 0.5
0.00025 0.01425 -0.0025 0.5
0.00025 0.0145 0 0.5
0.00797847 0.0119785 0.00239233 0.5
0.00797847 0.0119785 -0.00239233 0.5
0.00797847 0.0119785 0.0025 0.5
0.00797847 0.0119785 -0.0025 0.5
0.00795897 0.012 0.0025 0.5
0.00795897 0.012 -0.0025 0.5
0.00797875 0.0120213 -0.00239374 0.5
0.00797875 0.0120213 0.00239374 0.5
0.00797875 0.0120213 -0.0025 0.5
0.00797875 0.0120213 0.0025 0.5
0.00798031 0.0125 -3.20829e-19 0.5
0.00025 0.01475 0.0025 0.5
0.00025 0.01475 -0.0025 0.5
0.0005 0.015 0.0025 0.5
0.0005 0.015 -0.0025 0.5
0.00798159 0.0129816 -0.00240793 0.5
0.00798159 0.0129816 0.00240793 0.5
0.00798159 0.0129816 0.0025 0.5
0.00798159 0.0129816 -0.0025 0.5
0.00796466 0.013 0.0025 0.5
0.00796466 0.013 -0.0025 0.5
0.00025 0.01525 0.0025 0.5
0.00025 0.01525 -0.0025 0.5
0.00798178 0.0130182 -0.00240889 0.5
0.00798178 0.0130182 0.00240889 0.5
0.00798178 0.0130182 -0.0025 0.5
0.00798178 0.0130182 0.0025 0.5
0.00025 0.0155 0 0.5
0.00798304 0.0135 2.97223e-19 0.5
0.00025 0.01575 0.0025 0.5
0.00025 0.01575 -0.0025 0.5
0.0005 0.016 0.0025 0.5
0.0005 0.016 -0.0025 0.5
0.00798525 0.0139852 -0.00242623 0.5
0.00798525 0.0139852 0.00242623 0.5
0.00798525 0.0139852 0.0025 0.5
0.00798525 0.0139852 -0.0025 0.5
0.00797159 0.014 0.0025 0.5
0.00797159 0.014 -0.0025 0.5
0.00798551 0.0140145 0.00242755 0.5
0.00798551 0.0140145 -0.00242755 0.5
0.00798551 0.0140145 0.0025 0.5
0.00798551 0.0140145 -0.0025 0.5
0.00025 0.01625 0.0025 0.5
0.00025 0.01625 -0.0025 0.5
0.00025 0.0165 0 0.5
0.00798769 0.0145 1.56287e-20 0.5
0.00025 0.01675 0.0025 0.5
0.00025 0.01675 -0.0025 0.5
0.00798804 0.014988 -0.0024402 0.5
0.00798804 0.014988 0.0024402 0.5
0.00798804 0.014988 0.0025 0.5
0.00798804 0.014988 -0.0025 0.5
0.00797667 0.015 0.0025 0.5
0.00797667 0.015 -0.0025 0.5
0.00798807 0.0150119 0.00244037 0.5
0.00798807 0.0150119 -0.00244037 0.5
0.00798807 0.0150119 0.0025 0.5
0.00798807 0.0150119 -0.0025 0.5
0.0005 0.017 0.0025 0.5
0.0005 0.017 -0.0025 0.5
0.00025 0.01725 -0.0025 0.5
0.00025 0.01725 0.0025 0.5
0.00798842 0.0155 -9.46575e-20 0.5
0.00025 0.0175 0 0.5
0.00025 0.01775 -0.0025 0.5
0.00025 0.01775 0.0025 0.5
0.00798749 0.0159875 -0.00243745 0.5
0.00798749 0.0159875 0.00243745 0.5
0.00798749 0.0159875 0.0025 0.5
0.00798749 0.0159875 -0.0025 0.5
0.0079755 0.016 0.0025 0.5
0.0079755 0.016 -0.0025 0.5
0.00798739 0.0160126 0.00243697 0.5
0.00798739 0.0160126 -0.00243697 0.5
0.00798739 0.0160126 0.0025 0.5
0.00798739 0.0160126 -0.0025 0.5
0.0005 0.018 0.0025 0.5
0.0005 0.018 -0.0025 0.5
0.00798646 0.0165 -6.44423e-22 0.5
0.00025 0.01825 0.0025 0.5
0.00025 0.01825 -0.0025 0.5
0.00025 0.0185 -4.33681e-19 0.5
0.00025 0.01875 0.0025 0.5
0.00025 0.01875 -0.0025 0.5
0.0079873 0.0169873 -0.00243648 0.5
0.0079873 0.0169873 0.00243648 0.5
0.0079873 0.0169873 0.0025 0.5
0.0079873 0.0169873 -0.0025 0.5
0.00797531 0.017 0.0025 0.5
0.00797531 0.017 -0.0025 0.5
0.00798738 0.0170126 0.00243692 0.5
0.00798738 0.0170126 -0.00243692 0.5
0.00798738 0.0170126 0.0025 0.5
0.00798738 0.0170126 -0.0025 0.5
0.0005 0.019 0.0025 0.5
0.0005 0.019 -0.0025 0.5
0.00798822 0.0175 4.46276e-19 0.5
0.00025 0.01925 0.0025 0.5
0.00025 0.01925 -0.0025 0.5
0.00025 0.0195 4.33681e-19 0.5
0.00798972 0.0179897 -0.00244858 0.5
0.00798972 0.0179897 0.00244858 0.5
0.00798972 0.0179897 0.0025 0.5
0.00798972 0.0179897 -0.0025 0.5
0.00797997 0.018 0.0025 0.5
0.00797997 0.018 -0.0025 0.5
0.00798984 0.0180102 0.0024492 0.5
0.00798984 0.0180102 -0.0024492 0.5
0.00798984 0.0180102 0.0025 0.5
0.00798984 0.0180102 -0.0025 0.5
0.00025 0.01975 0.0025 0.5
0.00025 0.01975 -0.0025 0.5
0.00799133 0.0185 -2.5343e-19 0.5
0.0005 0.02 0.0025 0.5
0.0005 0.02 -0.0025 0.5
0.00025 0.02025 0.0025 0.5
0.00025 0.02025 -0.0025 0.5
0.00025 0.0205 0 0.5
0.00799025 0.0189903 -0.00245127 0.5
0.00799025 0.0189903 0.00245127 0.5
0.00799025 0.0189903 0.0025 0.5
0.00799025 0.0189903 -0.0025 0.5
0.0079808 0.019 0.0025 0.5
0.0079808 0.019 -0.0025 0.5
0.00799017 0.0190098 0.00245084 0.5
0.00799017 0.0190098 -0.00245084 0.5
0.00799017 0.0190098 0.0025 0.5
0.00799017 0.0190098 -0.0025 0.5
0.00025 0.02075 -0.0025 0.5
0.00025 0.02075 0.0025 0.5
0.00798909 0.0195 6.60827e-19 0.5
0.0005 0.021 0.0025 0.5
0.0005 0.021 -0.0025 0.5
0.00025 0.02125 0.0025 0.5
0.00025 0.02125 -0.0025 0.5
0.00025 0.0215 0 0.5
0.00798818 0.0199882 -0.00244088 0.5
0.00798818 0.0199882 0.00244088 0.5
0.00798818 0.0199882 -0.0025 0.5
0.00798818 0.0199882 0.0025 0.5
0.00797681 0.02 -0.0025 0.5
0.00797681 0.02 0.0025 0.5
0.00798809 0.0200119 -0.00244043 0.5
0.00798809 0.0200119 0.00244043 0.5
0.00798809 0.0200119 -0.0025 0.5
0.00798809 0.0200119 0.0025 0.5
0.00025 0.02175 0.0025 0.5
0.00025 0.02175 -0.0025 0.5
0.00798717 0.0205 -7.06231e-19 0.5
0.0005 0.022 0.0025 0.5
0.0005 0.022 -0.0025 0.5
0.00025 0.02225 0.0025 0.5
0.00025 0.02225 -0.0025 0.5
0.00025 0.0225 0 0.5
0.00798826 0.0209883 -0.00244132 0.5
0.00798826 0.0209883 0.00244132 0.5
0.00798826 0.0209883 0.0025 0.5
0.00798826 0.0209883 -0.0025 0.5
0.00797716 0.021 0.0025 0.5
0.00797716 0.021 -0.0025 0.5
0.00798837 0.0210116 -0.00244184 0.5
0.00798837 0.0210116 0.00244184 0.5
0.00798837 0.0210116 0.0025 0.5
0.00798837 0.0210116 -0.0025 0.5
0.00025 0.02275 0.0025 0.5
0.00025 0.02275 -0.0025 0.5
0.00798945 0.0215 1.81222e-21 0.5
0.0005 0.023 0.0025 0.5
0.0005 0.023 -0.0025 0.5
0.00025 0.02325 0.0025 0.5
0.00025 0.02325 -0.0025 0.5
0.00025 0.0235 0 0.5
0.00798936 0.0219894 -0.00244678 0.5
0.00798936 0.0219894 0.00244678 0.5
0.00798936 0.0219894 0.0025 0.5
0.00798936 0.0219894 -0.0025 0.5
0.00797915 0.022 0.0025 0.5
0.00797915 0.022 -0.0025 0.5
0.00798935 0.0220107 0.00244673 0.5
0.00798935 0.0220107 -0.00244673 0.5
0.00798935 0.0220107 0.0025 0.5
0.00798935 0.0220107 -0.0025 0.5
0.00798925 0.0225 4.6986e-19 0.5
0.00025 0.02375 0.0025 0.5
0.00025 0.02375 -0.0025 0.5
0.0005 0.024 0.0025 0.5
0.0005 0.024 -0.0025 0.5
0.00025 0.02425 0.0025 0.5
0.00025 0.02425 -0.0025 0.5
0.00798893 0.0229889 -0.00244464 0.5
0.00798893 0.0229889 0.00244464 0.5
0.00798893 0.0229889 -0.0025 0.5
0.00798893 0.0229889 0.0025 0.5
0.00797831 0.023 -0.0025 0.5
0.00797831 0.023 0.0025 0.5
0.0079889 0.0230111 -0.00244449 0.5
0.0079889 0.0230111 0.00244449 0.5
0.0079889 0.0230111 -0.0025 0.5
0.0079889 0.0230111 0.0025 0.5
0.00025 0.0245 0 0.5
0.00798858 0.0235 -2.45147e-19 0.5
0.00025 0.02475 0.0025 0.5
0.00025 0.02475 -0.0025 0.5
0.0005 0.025 0.0025 0.5
0.0005 0.025 -0.0025 0.5
0.00025 0.02525 -0.0025 0.5
0.00025 0.02525 0.0025 0.5
0.00798838 0.0239884 -0.00244188 0.5
0.00798838 0.0239884 0.00244188 0.5
0.00798838 0.0239884 0.0025 0.5
0.00798838 0.0239884 -0.0025 0.5
0.00797726 0.024 0.0025 0.5
0.00797726 0.024 -0.0025 0.5
0.00798836 0.0240116 0.00244178 0.5
0.00798836 0.0240116 -0.00244178 0.5
0.00798836 0.0240116 0.0025 0.5
0.00798836 0.0240116 -0.0025 0.5
0.00025 0.0255 0 0.5
0.00798815 0.0245 -7.20991e-21 0.5
0.00025 0.02575 -0.0025 0.5
0.00025 0.02575 0.0025 0.5
0.0005 0.026 0.0025 0.5
0.0005 0.026 -0.0025 0.5
0.00798797 0.024988 -0.00243986 0.5
0.00798797 0.024988 0.00243986 0.5
0.00798797 0.024988 0.0025 0.5
0.00798797 0.024988 -0.0025 0.5
0.00797649 0.025 0.0025 0.5
0.00797649 0.025 -0.0025 0.5
0.00798795 0.025012 0.00243977 0.5
0.00798795 0.025012 -0.00243977 0.5
0.00025 0.02625 0.0025 0.5
0.00025 0.02625 -0.0025 0.5
0.00798795 0.025012 0.0025 0.5
0.00798795 0.025012 -0.0025 0.5
0.00025 0.0265 0 0.5
0.00798777 0.0255 3.10808e-20 0.5
0.00025 0.02675 0.0025 0.5
0.00025 0.02675 -0.0025 0.5
0.0005 0.027 0.0025 0.5
0.0005 0.027 -0.0025 0.5
0.0079872 0.0259872 -0.00243601 0.5
0.0079872 0.0259872 0.00243601 0.5
0.0079872 0.0259872 0.0025 0.5
0.0079872 0.0259872 -0.0025 0.5
0.00797499 0.026 0.0025 0.5
0.00797499 0.026 -0.0025 0.5
0.00798714 0.0260129 0.00243571 0.5
0.00798714 0.0260129 -0.00243571 0.5
0.00798714 0.0260129 0.0025 0.5
0.00798714 0.0260129 -0.0025 0.5
0.00025 0.02725 0.0025 0.5
0.00025 0.02725 -0.0025 0.5
0.00025 0.0275 0 0.5
0.00798657 0.0265 2.6435e-20 0.5
0.00025 0.02775 0.0025 0.5
0.00025 0.02775 -0.0025 0.5
0.0005 0.028 0.0025 0.5
0.0005 0.028 -0.0025 0.5
0.00798607 0.0269861 -0.00243034 0.5
0.00798607 0.0269861 0.00243034 0.5
0.00798607 0.0269861 0.0025 0.5
0.00798607 0.0269861 -0.0025 0.5
0.00797283 0.027 0.0025 0.5
0.00797283 0.027 -0.0025 0.5
0.00798601 0.027014 0.00243005 0.5
0.00798601 0.027014 -0.00243005 0.5
0.00798601 0.027014 0.0025 0.5
0.00798601 0.027014 -0.0025 0.5
0.00025 0.02825 0.0025 0.5
0.00025 0.02825 -0.0025 0.5
0.00025 0.0285 0 0.5
0.0079855 0.0275 -4.96137e-20 0.5
0.00025 0.02875 0.0025 0.5
0.00025 0.02875 -0.0025 0.5
0.0005 0.029 0.0025 0.5
0.0005 0.029 -0.0025 0.5
0.00798591 0.0279859 -0.00242957 0.5
0.00798591 0.0279859 0.00242957 0.5
0.00798591 0.0279859 0.0025 0.5
0.00798591 0.0279859 -0.0025 0.5
0.00797265 0.028 0.0025 0.5
0.00797265 0.028 -0.0025 0.5
0.00798596 0.028014 0.00242981 0.5
0.00798596 0.028014 -0.00242981 0.5
0.00798596 0.028014 0.0025 0.5
0.00798596 0.028014 -0.0025 0.5
0.00025 0.02925 0.0025 0.5
0.00025 0.02925 -0.0025 0.5
0.00025 0.0295 -1.6263e-19 0.5
0.00798637 0.0285 2.72278e-20 0.5
0.00025 0.02975 0.0025 0.5
0.00025 0.02975 -0.0025 0.5
0.0005 0.03 0.0025 0.5
0.0005 0.03 -0.0025 0.5
0.00798674 0.0289867 -0.00243372 0.5
0.00798674 0.0289867 0.00243372 0.5
0.00798674 0.0289867 0.0025 0.5
0.00798674 0.0289867 -0.0025 0.5
0.00797421 0.029 0.0025 0.5
0.00797421 0.029 -0.0025 0.5
0.00798678 0.0290132 0.00243392 0.5
0.00798678 0.0290132 -0.00243392 0.5
0.00798678 0.0290132 0.0025 0.5
0.00798678 0.0290132 -0.0025 0.5
0.00025 0.03025 0.0025 0.5
0.00025 0.03025 -0.0025 0.5
0.00025 0.0305 0 0.5
0.00798716 0.0295 3.03755e-19 0.5
0.00025 0.03075 0.0025 0.5
0.00025 0.03075 -0.0025 0.5
0.0005 0.031 0.0025 0.5
0.0005 0.031 -0.0025 0.5
0.00798743 0.0299874 -0.00243716 0.5
0.00798743 0.0299874 0.00243716 0.5
0.00798743 0.0299874 0.0025 0.5
0.00798743 0.0299874 -0.0025 0.5
0.00797551 0.03 0.0025 0.5
0.00797551 0.03 -0.0025 0.5
0.00798746 0.0300125 0.0024373 0.5
0.00798746 0.0300125 -0.0024373 0.5
0.00798746 0.0300125 0.0025 0.5
0.00798746 0.0300125 -0.0025 0.5
0.00025 0.03125 0.0025 0.5
0.00025 0.03125 -0.0025 0.5
0.00025 0.0315 0 0.5
0.00798774 0.0305 -1.08431e-18 0.5
0.00025 0.03175 0.0025 0.5
0.00025 0.03175 -0.0025 0.5
0.00798694 0.0309869 0.00243468 0.5
0.00798694 0.0309869 -0.00243468 0.5
0.00798694 0.0309869 0.0025 0.5
0.00798694 0.0309869 -0.0025 0.5
0.0005 0.032 0.0025 0.5
0.0005 0.032 -0.0025 0.5
0.00797446 0.031 0.0025 0.5
0.00797446 0.031 -0.0025 0.5
0.00798685 0.0310132 0.00243425 0.5
0.00798685 0.0310132 -0.00243425 0.5
0.00798685 0.0310132 0.0025 0.5
0.00798685 0.0310132 -0.0025 0.5
0.00025 0.03225 0.0025 0.5
0.00025 0.03225 -0.0025 0.5
0.00798605 0.0315 7.19195e-19 0.5
0.00025 0.0325 0 0.5
0.00025 0.03275 0.0025 0.5
0.00025 0.03275 -0.0025 0.5
0.00798602 0.031986 -0.00243009 0.5
0.00798602 0.031986 0.00243009 0.5
0.00798602 0.031986 0.0025 0.5
0.00798602 0.031986 -0.0025 0.5
0.00797279 0.032 0.0025 0.5
0.00797279 0.032 -0.0025 0.5
0.00798601 0.032014 0.00243007 0.5
0.00798601 0.032014 -0.00243007 0.5
0.00798601 0.032014 0.0025 0.5
0.00798601 0.032014 -0.0025 0.5
0.0005 0.033 0.0025 0.5
0.0005 0.033 -0.0025 0.5
0.00025 0.03325 0.0025 0.5
0.00025 0.03325 -0.0025 0.5
0.00798598 0.0325 6.67166e-20 0.5
0.00025 0.0335 0 0.5
0.00025 0.03375 0.0025 0.5
0.00025 0.03375 -0.0025 0.5
0.00798739 0.0329874 -0.00243694 0.5
0.00798739 0.0329874 0.00243694 0.5
0.00798739 0.0329874 -0.0025 0.5
0.00798739 0.0329874 0.0025 0.5
0.00797553 0.033 0.0025 0.5
0.00797553 0.033 -0.0025 0.5
0.00798753 0.0330125 0.00243766 0.5
0.00798753 0.0330125 -0.00243766 0.5
0.00798753 0.0330125 0.0025 0.5
0.00798753 0.0330125 -0.0025 0.5
0.0005 0.034 0.0025 0.5
0.0005 0.034 -0.0025 0.5
0.00025 0.03425 0.0025 0.5
0.00025 0.03425 -0.0025 0.5
0.00798893 0.0335 -8.40402e-19 0.5
0.00025 0.0345 0 0.5
0.00025 0.03475 0.0025 0.5
0.00025 0.03475 -0.0025 0.5
0.00798851 0.0339885 -0.00244253 0.5
0.00798851 0.0339885 0.00244253 0.5
0.00798851 0.0339885 0.0025 0.5
0.00798851 0.0339885 -0.0025 0.5
0.00797749 0.034 0.0025 0.5
0.00797749 0.034 -0.0025 0.5
0.00798847 0.0340115 0.00244233 0.5
0.00798847 0.0340115 -0.00244233 0.5
0.00798847 0.0340115 0.0025 0.5
0.00798847 0.0340115 -0.0025 0.5
0.0005 0.035 0.0025 0.5
0.0005 0.035 -0.0025 0.5
0.00025 0.03525 0.0025 0.5
0.00025 0.03525 -0.0025 0.5
0.00798805 0.0345 1.57275e-18 0.5
0.00025 0.0355 0 0.5
0.00025 0.03575 0.0025 0.5
0.00025 0.03575 -0.0025 0.5
0.00798872 0.0349887 -0.00244358 0.5
0.00798872 0.0349887 0.00244358 0.5
0.00798872 0.0349887 0.0025 0.5
0.00798872 0.0349887 -0.0025 0.5
0.00797799 0.035 0.0025 0.5
0.00797799 0.035 -0.0025 0.5
0.00798878 0.0350112 0.00244389 0.5
0.00798878 0.0350112 -0.00244389 0.5
0.00798878 0.0350112 0.0025 0.5
0.00798878 0.0350112 -0.0025 0.5
0.0005 0.036 0.0025 0.5
0.0005 0.036 -0.0025 0.5
0.00025 0.03625 0.0025 0.5
0.00025 0.03625 -0.0025 0.5
0.00798945 0.0355 6.55477e-19 0.5
0.00025 0.0365 0 0.5
0.00025 0.03675 0.0025 0.5
0.00025 0.03675 -0.0025 0.5
0.0079912 0.0359912 -0.00245599 0.5
0.0079912 0.0359912 0.00245599 0.5
0.0079912 0.0359912 0.0025 0.5
0.0079912 0.0359912 -0.0025 0.5
0.00798282 0.036 0.0025 0.5
0.00798282 0.036 -0.0025 0.5
0.00799132 0.0360087 0.00245661 0.5
0.00799132 0.0360087 -0.00245661 0.5
0.00799132 0.0360087 0.0025 0.5
0.00799132 0.0360087 -0.0025 0.5
0.0005 0.037 0.0025 0.5
0.0005 0.037 -0.0025 0.5
0.00025 0.03725 -0.0025 0.5
0.00025 0.03725 0.0025 0.5
0.00799306 0.0365 -1.35772e-18 0.5
0.00025 0.0375 -6.77626e-19 0.5
0.00025 0.03775 0.0025 0.5
0.00025 0.03775 -0.0025 0.5
0.00799506 0.0369951 -0.00247529 0.5
0.00799506 0.0369951 0.00247529 0.5
0.00799506 0.0369951 0.0025 0.5
0.00799506 0.0369951 -0.0025 0.5
0.00799029 0.037 0.0025 0.5
0.00799029 0.037 -0.0025 0.5
0.00799514 0.0370049 0.00247568 0.5
0.00799514 0.0370049 -0.00247568 0.5
0.00799514 0.0370049 0.0025 0.5
0.00799514 0.0370049 -0.0025 0.5
0.0005 0.038 0.0025 0.5
0.0005 0.038 -0.0025 0.5
0.00025 0.03825 0.0025 0.5
0.00025 0.03825 -0.0025 0.5
0.00799712 0.0375 -1.09246e-19 0.5
0.00025 0.0385 8.67362e-19 0.5
0.00025 0.03875 0.0025 0.5
0.00025 0.03875 -0.0025 0.5
0.00799814 0.0379981 -0.00249069 0.5
0.00799814 0.0379981 0.00249069 0.5
0.00799814 0.0379981 -0.0025 0.5
0.00799814 0.0379981 0.0025 0.5
0.00799631 0.038 0.0025 0.5
0.00799631 0.038 -0.0025 0.5
0.00799815 0.0380018 0.00249077 0.5
0.00799815 0.0380018 -0.00249077 0.5
0.00799815 0.0380018 0.0025 0.5
0.00799815 0.0380018 -0.0025 0.5
0.0005 0.039 0.0025 0.5
0.0005 0.039 -0.0025 0.5
0.00799917 0.0385 1.45037e-18 0.5
0.00025 0.03925 -0.0025 0.5
0.00025 0.03925 0.0025 0.5
0.00025 0.0395 0 0.5
0.00025 0.03975 -0.0025 0.5
0.00025 0.03975 0.0025 0.5
0.00799932 0.0389993 -0.00249661 0.5
0.00799932 0.0389993 0.00249661 0.5
0.00799932 0.0389993 0.0025 0.5
0.00799932 0.0389993 -0.0025 0.5
0.00799865 0.039 0.0025 0.5
0.00799865 0.039 -0.0025 0.5
0.00799932 0.0390007 0.00249661 0.5
0.00799932 0.0390007 -0.00249661 0.5
0.00799932 0.0390007 0.0025 0.5
0.00799932 0.0390007 -0.0025 0.5
0.0005 0.04 0.0025 0.5
0.0005 0.04 -0.0025 0.5
0.00799947 0.0395 -1.25309e-18 0.5
0.00025 0.04025 0.0025 0.5
0.00025 0.04025 -0.0025 0.5
0.00025 0.0405 6.77626e-19 0.5
0.00025 0.04075 0.0025 0.5
0.00025 0.04075 -0.0025 0.5
0.00799974 0.0399997 -0.00249868 0.5
0.00799974 0.0399997 0.00249868 0.5
0.00799974 0.0399997 0.0025 0.5
0.00799974 0.0399997 -0.0025 0.5
0.00799947 0.04 0.0025 0.5
0.00799947 0.04 -0.0025 0.5
0.00799974 0.0400003 0.00249868 0.5
0.00799974 0.0400003 -0.00249868 0.5
0.00799974 0.0400003 0.0025 0.5
0.00799974 0.0400003 -0.0025 0.5
0.0005 0.041 -0.0025 0.5
0.0005 0.041 0.0025 0.5
0.008 0.0405 -1.33826e-18 0.5
0.00025 0.04125 0.0025 0.5
0.00025 0.04125 -0.0025 0.5
0.00025 0.0415 -6.77626e-19 0.5
0.00025 0.04175 0.0025 0.5
0.00025 0.04175 -0.0025 0.5
0.008 0.041 0.0025 0.5
0.008 0.041 -0.0025 0.5
0.0005 0.042 0.0025 0.5
0.0005 0.042 -0.0025 0.5
0.008 0.0415 7.14568e-19 0.5
0.00025 0.04225 0.0025 0.5
0.00025 0.04225 -0.0025 0.5
0.00025 0.0425 0 0.5
0.00025 0.04275 0.0025 0.5
0.00025 0.04275 -0.0025 0.5
0.0079975 0.0419975 -0.00248749 0.5
0.0079975 0.0419975 0.00248749 0.5
0.0079975 0.0419975 0.0025 0.5
0.0079975 0.0419975 -0.0025 0.5
0.00799497 0.042 0.0025 0.5
0.00799497 0.042 -0.0025 0.5
0.00799745 0.0420026 0.00248724 0.5
0.00799745 0.0420026 -0.00248724 0.5
0.00799745 0.0420026 0.0025 0.5
0.00799745 0.0420026 -0.0025 0.5
0.0005 0.043 0.0025 0.5
0.0005 0.043 -0.0025 0.5
0.00799492 0.0425 6.88e-19 0.5
0.00025 0.04325 0.0025 0.5
0.00025 0.04325 -0.0025 0.5
0.00025 0.0435 0 0.5
0.00798772 0.0429877 -0.00243859 0.5
0.00798772 0.0429877 0.00243859 0.5
0.00798772 0.0429877 -0.0025 0.5
0.00798772 0.0429877 0.0025 0.5
0.00797532 0.043 0.0025 0.5
0.00797532 0.043 -0.0025 0.5
0.00798696 0.043013 0.00243479 0.5
0.00798696 0.043013 -0.00243479 0.5
0.00798696 0.043013 0.0025 0.5
0.00798696 0.043013 -0.0025 0.5
0.00025 0.04375 0.0025 0.5
0.00025 0.04375 -0.0025 0.5
0.0005 0.044 0.0025 0.5
0.0005 0.044 -0.0025 0.5
0.00797955 0.0435 3.09652e-20 0.5
0.00025 0.04425 0.0025 0.5
0.00025 0.04425 -0.0025 0.5
0.00025 0.0445 -8.67362e-19 0.5
0.00792302 0.043923 0.00211512 0.5
0.00792302 0.043923 -0.00211512 0.5
0.00792302 0.043923 0.0025 0.5
0.00792302 0.043923 -0.0025 0.5
0.00783233 0.044 0.0025 0.5
0.00783233 0.044 -0.0025 0.5
0.00025 0.04475 0.0025 0.5
0.00025 0.04475 -0.0025 0.5
0.00785435 0.0441456 0.00177177 0.5
0.00785435 0.0441456 -0.00177177 0.5
0.00785435 0.0441456 0.0025 0.5
0.00785435 0.0441456 -0.0025 0.5
0.0005 0.045 0.0025 0.5
0.0005 0.045 -0.0025 0.5
0.00778974 0.0445 8.4359e-20 0.5
0.00025 0.04525 0.0025 0.5
0.00025 0.04525 -0.0025 0.5
0.00778784 0.0447878 -0.00143918 0.5
0.00778784 0.0447878 0.00143918 0.5
0.00025 0.0455 1.49078e-18 0.5
0.00778784 0.0447878 -0.0025 0.5
0.00778784 0.0447878 0.0025 0.5
0.00769931 0.045 0.0025 0.5
0.00769931 0.045 -0.0025 0.5
0.00025 0.04575 0.0025 0.5
0.00025 0.04575 -0.0025 0.5
0.00778212 0.0452179 -0.00141058 0.5
0.00778212 0.0452179 0.00141058 0.5
0.00778212 0.0452179 0.0025 0.5
0.00778212 0.0452179 -0.0025 0.5
0.0005 0.046 -0.0025 0.5
0.0005 0.046 0.0025 0.5
0.00778023 0.0455 7.31923e-21 0.5
0.00025 0.04625 0.0025 0.5
0.00025 0.04625 -0.0025 0.5
0.00025 0.0465 -8.67362e-19 0.5
0.00784045 0.0458405 -0.00170225 0.5
0.00784045 0.0458405 0.00170225 0.5
0.00784045 0.0458405 0.0025 0.5
0.00784045 0.0458405 -0.0025 0.5
0.00781755 0.046 0.0025 0.5
0.00781755 0.046 -0.0025 0.5
0.0079142 0.0460858 0.00207102 0.5
0.0079142 0.0460858 -0.00207102 0.5
0.00025 0.04675 0.0025 0.5
0.00025 0.04675 -0.0025 0.5
0.0079142 0.0460858 0.0025 0.5
0.0079142 0.0460858 -0.0025 0.5
0.0005 0.047 0.0025 0.5
0.0005 0.047 -0.0025 0.5
0.00796833 0.0465 1.55309e-18 0.5
0.00025 0.04725 0.0025 0.5
0.00025 0.04725 -0.0025 0.5
0.00025 0.0475 0 0.5
0.0079731 0.0469731 -0.00236552 0.5
0.0079731 0.0469731 0.00236552 0.5
0.0079731 0.0469731 -0.0025 0.5
0.0079731 0.0469731 0.0025 0.5
0.00794992 0.047 0.0025 0.5
0.00794992 0.047 -0.0025 0.5
0.00797416 0.0470258 0.00237079 0.5
0.00797416 0.0470258 -0.00237079 0.5
0.00797416 0.0470258 0.0025 0.5
0.00797416 0.0470258 -0.0025 0.5
0.00025 0.04775 0.0025 0.5
0.00025 0.04775 -0.0025 0.5
0.0005 0.048 0.0025 0.5
0.0005 0.048 -0.0025 0.5
0.00797885 0.0475 -1.4824e-18 0.5
0.00025 0.04825 0.0025 0.5
0.00025 0.04825 -0.0025 0.5
0.00025 0.0485 0 0.5
0.00798113 0.0479811 -0.00240563 0.5
0.00798113 0.0479811 0.00240563 0.5
0.00798113 0.0479811 0.0025 0.5
0.00798113 0.0479811 -0.0025 0.5
0.00796396 0.048 0.0025 0.5
0.00796396 0.048 -0.0025 0.5
0.00798148 0.0480185 0.00240739 0.5
0.00798148 0.0480185 -0.00240739 0.5
0.00798148 0.0480185 0.0025 0.5
0.00798148 0.0480185 -0.0025 0.5
0.00025 0.04875 0.0025 0.5
0.00025 0.04875 -0.0025 0.5
0.0005 0.049 0.0025 0.5
0.0005 0.049 -0.0025 0.5
0.00798373 0.0485 1.47866e-18 0.5
0.00025 0.04925 0.0025 0.5
0.00025 0.04925 -0.0025 0.5
0.00025 0.0495 0 0.5
0.0079851 0.0489851 -0.00242549 0.5
0.0079851 0.0489851 0.00242549 0.5
0.0079851 0.0489851 -0.0025 0.5
0.0079851 0.0489851 0.0025 0.5
0.00797121 0.049 0.0025 0.5
0.00797121 0.049 -0.0025 0.5
0.00798526 0.0490147 -0.00242632 0.5
0.00798526 0.0490147 0.00242632 0.5
0.00798526 0.0490147 -0.0025 0.5
0.00798526 0.0490147 0.0025 0.5
0.00025 0.04975 0.0025 0.5
0.00025 0.04975 -0.0025 0.5
0.0005 0.05 0.0025 0.5
0.0005 0.05 -0.0025 0.5
0.00798662 0.0495 -1.4897e-18 0.5
0.00025 0.05025 -0.0025 0.5
0.00025 0.05025 0.0025 0.5
0.00025 0.0505 1.49078e-18 0.5
0.00798644 0.0499864 -0.00243221 0.5
0.00798644 0.0499864 0.00243221 0.5
0.00798644 0.0499864 -0.0025 0.5
0.00798644 0.0499864 0.0025 0.5
0.00797358 0.05 0.0025 0.5
0.00797358 0.05 -0.0025 0.5
0.00798642 0.0500136 0.00243211 0.5
0.00798642 0.0500136 -0.00243211 0.5
0.00798642 0.0500136 0.0025 0.5
0.00798642 0.0500136 -0.0025 0.5
0.00025 0.05075 -0.0025 0.5
0.00025 0.05075 0.0025 0.5
0.0005 0.051 -0.0025 0.5
0.0005 0.051 0.0025 0.5
0.00798624 0.0505 1.49303e-20 0.5
0.00025 0.05125 0.0025 0.5
0.00025 0.05125 -0.0025 0.5
0.00025 0.0515 -1.49078e-18 0.5
0.00798679 0.0509868 -0.00243396 0.5
0.00798679 0.0509868 0.00243396 0.5
0.00798679 0.0509868 0.0025 0.5
0.00798679 0.0509868 -0.0025 0.5
0.00797432 0.051 0.0025 0.5
0.00797432 0.051 -0.0025 0.5
0.00798685 0.0510131 0.00243426 0.5
0.00798685 0.0510131 -0.00243426 0.5
0.00798685 0.0510131 0.0025 0.5
0.00798685 0.0510131 -0.0025 0.5
0.00025 0.05175 0.0025 0.5
0.00025 0.05175 -0.0025 0.5
0.0005 0.052 0.0025 0.5
0.0005 0.052 -0.0025 0.5
0.0079874 0.0515 1.06791e-19 0.5
0.00025 0.05225 0.0025 0.5
0.00025 0.05225 -0.0025 0.5
0.00025 0.0525 0 0.5
0.00798716 0.0519872 -0.00243578 0.5
0.00798716 0.0519872 0.00243578 0.5
0.00798716 0.0519872 0.0025 0.5
0.00798716 0.0519872 -0.0025 0.5
0.00797493 0.052 0.0025 0.5
0.00797493 0.052 -0.0025 0.5
0.00798713 0.0520129 0.00243565 0.5
0.00798713 0.0520129 -0.00243565 0.5
0.00798713 0.0520129 0.0025 0.5
0.00798713 0.0520129 -0.0025 0.5
0.00025 0.05275 0.0025 0.5
0.00025 0.05275 -0.0025 0.5
0.0005 0.053 0.0025 0.5
0.0005 0.053 -0.0025 0.5
0.00798689 0.0525 -7.3213e-20 0.5
0.00025 0.05325 0.0025 0.5
0.00025 0.05325 -0.0025 0.5
0.00025 0.0535 0 0.5
0.00798724 0.0529872 -0.00243618 0.5
0.00798724 0.0529872 0.00243618 0.5
0.00798724 0.0529872 0.0025 0.5