# f_l  POINT_DATA 1508
#  x  y  z  f_l
0.0442289 0.00111 0.0025 0.5
0.0442289 0.00111 -0.0025 0.5
0.0442857 0.001665 -4.1845e-20 0.5
0.0443324 0.000555 -3.86123e-20 0.5
0.0442102 0.00222 -0.0025 0.5
0.0442102 0.00222 0.0025 0.5
0.044303 0.0012568 -0.00183873 0.5
0.044303 0.0012568 0.00183873 0.5
0.0443145 0.00097466 0.00189036 0.5
0.0443145 0.00097466 -0.00189036 0.5
0.0442921 0.00206231 0.00178967 0.5
0.0442921 0.00206231 -0.00178967 0.5
0.044303 0.0012568 -0.0025 0.5
0.044303 0.0012568 0.0025 0.5
0.0443082 0.002775 3.6545e-21 0.5
0.0443145 0.00097466 0.0025 0.5
0.0443145 0.00097466 -0.0025 0.5
0.0443019 0.00236798 -0.00183342 0.5
0.0443019 0.00236798 0.00183342 0.5
0.0442921 0.00206231 0.0025 0.5
0.0442921 0.00206231 -0.0025 0.5
0.0443019 0.00236798 0.0025 0.5
0.0443019 0.00236798 -0.0025 0.5
0.0442404 0.00333 -0.0025 0.5
0.0442404 0.00333 0.0025 0.5
0.044316 0.00319613 0.00189698 0.5
0.044316 0.00319613 -0.00189698 0.5
0.044316 0.00319613 -0.0025 0.5
0.044316 0.00319613 0.0025 0.5
0.0443253 0.00345454 -0.00193903 0.5
0.0443253 0.00345454 0.00193903 0.5
0.044333 0.003885 -1.02504e-19 0.5
0.04445 0.000928491 -0.0025 0.5
0.04445 0.000928491 0.0025 0.5
0.0443253 0.00345454 0.0025 0.5
0.0443253 0.00345454 -0.0025 0.5
0.0442952 0.00444 0.0025 0.5
0.0442952 0.00444 -0.0025 0.5
0.044354 0.00434416 0.00206827 0.5
0.044354 0.00434416 -0.00206827 0.5
0.044354 0.00434416 0.0025 0.5
0.044354 0.00434416 -0.0025 0.5
0.0443607 0.00452921 -0.00209815 0.5
0.0443607 0.00452921 0.00209815 0.5
0.0443607 0.00452921 0.0025 0.5
0.0443607 0.00452921 -0.0025 0.5
0.0443825 0.004995 -5.46147e-20 0.5
0.0447376 0.00028731 0.0025 0.5
0.0447376 0.00028731 -0.0025 0.5
0.044401 0.00555 0.0025 0.5
0.044401 0.00555 -0.0025 0.5
0.0444204 0.00552039 0.00236661 0.5
0.0444204 0.00552039 -0.00236661 0.5
0.0444204 0.00552039 -0.0025 0.5
0.0444204 0.00552039 0.0025 0.5
0.0444224 0.0055776 -0.00237567 0.5
0.0444224 0.0055776 0.00237567 0.5
0.0444224 0.0055776 0.0025 0.5
0.0444224 0.0055776 -0.0025 0.5
0.0444635 0.006105 1.58508e-19 0.5
0.04445 0.00591628 0.0025 0.5
0.04445 0.00591628 -0.0025 0.5
0.0450056 0.00028731 0 0.5
0.0445058 0.0066043 0.00224911 0.5
0.0445058 0.0066043 -0.00224911 0.5
0.0445058 0.0066043 0.0025 0.5
0.0445058 0.0066043 -0.0025 0.5
0.0445237 0.00673365 -0.00216825 0.5
0.0445237 0.00673365 0.00216825 0.5
0.0445237 0.00673365 0.0025 0.5
0.0445237 0.00673365 -0.0025 0.5
0.0445508 0.00666 0.0025 0.5
0.0445508 0.00666 -0.0025 0.5
0.0445688 0.007215 4.72692e-22 0.5
0.0446093 0.00761084 -0.00178307 0.5
0.0446093 0.00761084 0.00178307 0.5
0.0446093 0.00761084 0.0025 0.5
0.0446093 0.00761084 -0.0025 0.5
0.0452736 0.00028731 0.0025 0.5
0.0452736 0.00028731 -0.0025 0.5
0.0446768 0.00799655 -0.00147949 0.5
0.0446768 0.00799655 0.00147949 0.5
0.044707 0.00777 0.0025 0.5
0.044707 0.00777 -0.0025 0.5
0.0446768 0.00799655 0.0025 0.5
0.0446768 0.00799655 -0.0025 0.5
0.0447368 0.00849685 2.33008e-21 0.5
0.0447476 0.00858277 0.0025 0.5
0.0447476 0.00858277 -0.0025 0.5
0.0455612 0.000559779 -0.0025 0.5
0.0455612 0.000559779 0.0025 0.5
0.0448673 0.00888 0.0025 0.5
0.0448673 0.00888 -0.0025 0.5
0.0458391 0.0002775 0.0025 0.5
0.0458391 0.0002775 -0.0025 0.5
0.0449368 0.00945667 -3.79471e-20 0.5
0.0449184 0.00934787 0.0025 0.5
0.0449184 0.00934787 -0.0025 0.5
0.0449412 0.00949937 0.0025 0.5
0.0449412 0.00949937 -0.0025 0.5
0.0461169 0.0002775 0 0.5
0.0450273 0.00999 0.0025 0.5
0.0450273 0.00999 -0.0025 0.5
0.045185 0.0105581 -2.55156e-19 0.5
0.0451661 0.0103847 0.0025 0.5
0.0451661 0.0103847 -0.0025 0.5
0.0463947 0.0002775 0.0025 0.5
0.0463947 0.0002775 -0.0025 0.5
0.0452053 0.0107445 0.0025 0.5
0.0452053 0.0107445 -0.0025 0.5
0.0451815 0.0111 -0.0025 0.5
0.0451815 0.0111 0.0025 0.5
0.0453228 0.0113382 -0.00142724 0.5
0.0453228 0.0113382 0.00142724 0.5
0.0466725 0.000555 -0.0025 0.5
0.0466725 0.000555 0.0025 0.5
0.0453228 0.0113382 0.0025 0.5
0.0453228 0.0113382 -0.0025 0.5
0.0453514 0.011655 3.24985e-19 0.5
0.0453829 0.0120319 -0.00169767 0.5
0.0453829 0.0120319 0.00169767 0.5
0.045324 0.01221 -0.0025 0.5
0.045324 0.01221 0.0025 0.5
0.0453829 0.0120319 0.0025 0.5
0.0453829 0.0120319 -0.0025 0.5
0.0469503 0.0002775 0.0025 0.5
0.0469503 0.0002775 -0.0025 0.5
0.0454306 0.0123405 0.00191233 0.5
0.0454306 0.0123405 -0.00191233 0.5
0.0454306 0.0123405 0.0025 0.5
0.0454306 0.0123405 -0.0025 0.5
0.0454611 0.012765 5.64106e-20 0.5
0.0472281 0.0002775 -1.94461e-21 0.5
0.0455134 0.01332 0.0025 0.5
0.0455134 0.01332 -0.0025 0.5
0.0455309 0.0132896 -0.00236323 0.5
0.0455309 0.0132896 0.00236323 0.5
0.0455309 0.0132896 0.0025 0.5
0.0455309 0.0132896 -0.0025 0.5
0.0455369 0.0133443 0.00239041 0.5
0.0455369 0.0133443 -0.00239041 0.5
0.0455369 0.0133443 0.0025 0.5
0.0455369 0.0133443 -0.0025 0.5
0.0475059 0.0002775 0.0025 0.5
0.0475059 0.0002775 -0.0025 0.5
0.0455612 0.0134807 -0.0025 0.5
0.0455612 0.0134807 0.0025 0.5
0.0456112 0.013875 -6.2798e-21 0.5
0.0477837 0.000555 -0.0025 0.5
0.0477837 0.000555 0.0025 0.5
0.0456973 0.0142941 -0.00188773 0.5
0.0456973 0.0142941 0.00188773 0.5
0.0456973 0.0142941 0.0025 0.5
0.0456973 0.0142941 -0.0025 0.5
0.0458352 0.01443 0.0025 0.5
0.0458352 0.01443 -0.0025 0.5
0.0480616 0.0002775 0.0025 0.5
0.0480616 0.0002775 -0.0025 0.5
0.0458838 0.0147522 0.0025 0.5
0.0458838 0.0147522 -0.0025 0.5
0.0483394 0.0002775 0 0.5
0.0459559 0.015004 2.06127e-22 0.5
0.0459805 0.0151212 0.0025 0.5
0.0459805 0.0151212 -0.0025 0.5
0.0486172 0.0002775 0.0025 0.5
0.0486172 0.0002775 -0.0025 0.5
0.046151 0.01554 0.0025 0.5
0.046151 0.01554 -0.0025 0.5
0.048895 0.000555 -0.0025 0.5
0.048895 0.000555 0.0025 0.5
0.04635 0.0159487 2.01854e-20 0.5
0.0463366 0.0158755 -0.0025 0.5
0.0463366 0.0158755 0.0025 0.5
0.0491728 0.0002775 0.0025 0.5
0.0491728 0.0002775 -0.0025 0.5
0.0464229 0.0164007 -0.00137713 0.5
0.0464229 0.0164007 0.00137713 0.5
0.0464229 0.0164007 -0.0025 0.5
0.0464229 0.0164007 0.0025 0.5
0.046396 0.01665 0.0025 0.5
0.046396 0.01665 -0.0025 0.5
0.0494506 0.0002775 0 0.5
0.0465267 0.0167956 0.00184398 0.5
0.0465267 0.0167956 -0.00184398 0.5
0.0465267 0.0167956 0.0025 0.5
0.0465267 0.0167956 -0.0025 0.5
0.0465742 0.017205 2.0448e-20 0.5
0.0497284 0.0002775 0.0025 0.5
0.0497284 0.0002775 -0.0025 0.5
0.0466725 0.0177289 -0.0025 0.5
0.0466725 0.0177289 0.0025 0.5
0.0466765 0.0177561 -0.00248221 0.5
0.0466765 0.0177561 0.00248221 0.5
0.0466765 0.0177561 0.0025 0.5
0.0466765 0.0177561 -0.0025 0.5
0.0466789 0.0177664 -0.00247118 0.5
0.0466789 0.0177664 0.00247118 0.5
0.0466812 0.01776 0.0025 0.5
0.0466812 0.01776 -0.0025 0.5
0.0466789 0.0177664 0.0025 0.5
0.0466789 0.0177664 -0.0025 0.5
0.0500063 0.000555 -0.0025 0.5
0.0500063 0.000555 0.0025 0.5
0.0467899 0.018315 3.00896e-20 0.5
0.0502841 0.0002775 0.0025 0.5
0.0502841 0.0002775 -0.0025 0.5
0.0468771 0.0186656 -0.00157934 0.5
0.0468771 0.0186656 0.00157934 0.5
0.0468771 0.0186656 0.0025 0.5
0.0468771 0.0186656 -0.0025 0.5
0.0505619 0.0002775 1.91847e-21 0.5
0.0470763 0.01887 0.0025 0.5
0.0470763 0.01887 -0.0025 0.5
0.0508397 0.0002775 0.0025 0.5
0.0508397 0.0002775 -0.0025 0.5
0.0473241 0.0194195 3.17055e-20 0.5
0.0473069 0.0193463 0.0025 0.5
0.0473069 0.0193463 -0.0025 0.5
0.0511175 0.000555 -0.0025 0.5
0.0511175 0.000555 0.0025 0.5
0.0473657 0.0195624 -0.0025 0.5
0.0473657 0.0195624 0.0025 0.5
0.0513953 0.0002775 0.0025 0.5
0.0513953 0.0002775 -0.0025 0.5
0.0474337 0.01998 0.0025 0.5
0.0474337 0.01998 -0.0025 0.5
0.0516731 0.0002775 0 0.5
0.0475998 0.0201638 0.00167211 0.5
0.0475998 0.0201638 -0.00167211 0.5
0.0475998 0.0201638 0.0025 0.5
0.0475998 0.0201638 -0.0025 0.5
0.0476602 0.020535 5.33155e-20 0.5
0.0519509 0.0002775 0.0025 0.5
0.0519509 0.0002775 -0.0025 0.5
0.0477343 0.0210406 -0.00227749 0.5
0.0477343 0.0210406 0.00227749 0.5
0.0477118 0.02109 -0.0025 0.5
0.0477118 0.02109 0.0025 0.5
0.0477343 0.0210406 0.0025 0.5
0.0477343 0.0210406 -0.0025 0.5
0.0477499 0.0211238 -0.00234763 0.5
0.0477499 0.0211238 0.00234763 0.5
0.0477499 0.0211238 0.0025 0.5
0.0477499 0.0211238 -0.0025 0.5
0.0522288 0.000555 -0.0025 0.5
0.0522288 0.000555 0.0025 0.5
0.0477837 0.0212835 -0.0025 0.5
0.0477838 0.0212835 0.0025 0.5
0.0478193 0.021645 3.23379e-19 0.5
0.0525066 0.0002775 0.0025 0.5
0.0525066 0.0002775 -0.0025 0.5
0.0527844 0.0002775 0 0.5
0.0479276 0.0220563 -0.00185271 0.5
0.0479276 0.0220563 0.00185271 0.5
0.0479276 0.0220563 0.0025 0.5
0.0479276 0.0220563 -0.0025 0.5
0.0481144 0.0222 0.0025 0.5
0.0481144 0.0222 -0.0025 0.5
0.0530622 0.0002775 0.0025 0.5
0.0530622 0.0002775 -0.0025 0.5
0.05334 0.000555 -0.0025 0.5
0.05334 0.000555 0.0025 0.5
0.0483997 0.0227561 1.25668e-20 0.5
0.0483852 0.0227092 0.0025 0.5
0.0483852 0.0227092 -0.0025 0.5
0.0484315 0.022847 0.0025 0.5
0.0484315 0.022847 -0.0025 0.5
0.0536178 0.0002775 -0.0025 0.5
0.0536178 0.0002775 0.0025 0.5
0.0538956 0.0002775 0 0.5
0.0485455 0.02331 0.0025 0.5
0.0485455 0.02331 -0.0025 0.5
0.0487192 0.0234856 0.00170915 0.5
0.0487192 0.0234856 -0.00170915 0.5
0.0487192 0.0234856 0.0025 0.5
0.0487192 0.0234856 -0.0025 0.5
0.0541734 0.0002775 0.0025 0.5
0.0541734 0.0002775 -0.0025 0.5
0.048789 0.023865 0 0.5
0.0544513 0.000555 -0.0025 0.5
0.0544513 0.000555 0.0025 0.5
0.0488472 0.0243722 -0.00228474 0.5
0.0488472 0.0243722 0.00228474 0.5
0.0488226 0.02442 0.0025 0.5
0.0488226 0.02442 -0.0025 0.5
0.0488472 0.0243722 0.0025 0.5
0.0488472 0.0243722 -0.0025 0.5
0.0488615 0.0244535 -0.00234916 0.5
0.0488615 0.0244535 0.00234916 0.5
0.0488615 0.0244535 -0.0025 0.5
0.0488615 0.0244535 0.0025 0.5
0.0547291 0.0002775 0.0025 0.5
0.0547291 0.0002775 -0.0025 0.5
0.048895 0.0246254 -0.0025 0.5
0.048895 0.0246254 0.0025 0.5
0.0489135 0.024975 -6.13241e-19 0.5
0.0550069 0.0002775 -5.58287e-21 0.5
0.0490239 0.0254012 -0.00191983 0.5
0.0490239 0.0254012 0.00191983 0.5
0.0490239 0.0254012 0.0025 0.5
0.0490239 0.0254012 -0.0025 0.5
0.0552847 0.0002775 0.0025 0.5
0.0552847 0.0002775 -0.0025 0.5
0.0492085 0.02553 -0.0025 0.5
0.0492085 0.02553 0.0025 0.5
0.0555625 0.000555 -0.0025 0.5
0.0555625 0.000555 0.0025 0.5
0.0558403 0.0002775 0.0025 0.5
0.0558403 0.0002775 -0.0025 0.5
0.0495115 0.0260874 7.77117e-20 0.5
0.0494958 0.0260399 -0.0025 0.5
0.0494958 0.0260399 0.0025 0.5
0.049545 0.0261793 -0.0025 0.5
0.049545 0.0261793 0.0025 0.5
0.0561181 0.0002775 0 0.5
0.0496617 0.02664 0.0025 0.5
0.0496617 0.02664 -0.0025 0.5
0.0563959 0.0002775 0.0025 0.5
0.0563959 0.0002775 -0.0025 0.5
0.049835 0.026811 0.0017296 0.5
0.049835 0.026811 -0.0017296 0.5
0.049835 0.026811 -0.0025 0.5
0.049835 0.026811 0.0025 0.5
0.0566738 0.000555 -0.0025 0.5
0.0566738 0.000555 0.0025 0.5
0.0499067 0.027195 2.40985e-20 0.5
0.0569516 0.0002775 0.0025 0.5
0.0569516 0.0002775 -0.0025 0.5
0.0499493 0.0276931 -0.00224356 0.5
0.0499493 0.0276931 0.00224356 0.5
0.0499493 0.0276931 0.0025 0.5
0.0499493 0.0276931 -0.0025 0.5
0.0499178 0.02775 0.0025 0.5
0.0499178 0.02775 -0.0025 0.5
0.0499647 0.0277915 0.00231322 0.5
0.0499647 0.0277915 -0.00231322 0.5
0.0499647 0.0277915 0.0025 0.5
0.0499647 0.0277915 -0.0025 0.5
0.0572294 0.0002775 0 0.5
0.0500063 0.0280377 0.0025 0.5
0.0500063 0.0280377 -0.0025 0.5
0.0500022 0.028305 3.55849e-21 0.5
0.0575072 0.0002775 0.0025 0.5
0.0575072 0.0002775 -0.0025 0.5
0.0501092 0.0287572 -0.00203673 0.5
0.0501092 0.0287572 0.00203673 0.5
0.0501092 0.0287572 0.0025 0.5
0.0501092 0.0287572 -0.0025 0.5
0.057785 0.000555 -0.0025 0.5
0.057785 0.000555 0.0025 0.5
0.0502599 0.02886 -0.0025 0.5
0.0502599 0.02886 0.0025 0.5
0.0580628 0.0002775 0.0025 0.5
0.0580628 0.0002775 -0.0025 0.5
0.0583406 0.0002775 0 0.5
0.0504232 0.0292764 0.0025 0.5
0.0504232 0.0292764 -0.0025 0.5
0.0504802 0.0294102 -7.01115e-19 0.5
0.0505023 0.0294745 0.0025 0.5
0.0505023 0.0294745 -0.0025 0.5
0.0586184 0.0002775 0.0025 0.5
0.0586184 0.0002775 -0.0025 0.5
0.0588963 0.000555 -0.0025 0.5
0.0588963 0.000555 0.0025 0.5
0.0507066 0.02997 0.0025 0.5
0.0507066 0.02997 -0.0025 0.5
0.0509049 0.0301824 0.00154346 0.5
0.0509049 0.0301824 -0.00154346 0.5
0.0591741 0.0002775 0.0025 0.5
0.0591741 0.0002775 -0.0025 0.5
0.0509049 0.0301824 0.0025 0.5
0.0509049 0.0301824 -0.0025 0.5
0.0509771 0.030525 4.75005e-19 0.5
0.0594519 0.0002775 -7.45167e-21 0.5
0.0510269 0.0309895 -0.00209218 0.5
0.0510269 0.0309895 0.00209218 0.5
0.0510269 0.0309895 0.0025 0.5
0.0510269 0.0309895 -0.0025 0.5
0.0509883 0.03108 0.0025 0.5
0.0509883 0.03108 -0.0025 0.5
0.0597297 0.0002775 0.0025 0.5
0.0597297 0.0002775 -0.0025 0.5
0.0510562 0.0311412 0.00222426 0.5
0.0510562 0.0311412 -0.00222426 0.5
0.0510562 0.0311412 0.0025 0.5
0.0510562 0.0311412 -0.0025 0.5
0.0600075 0.000555 -0.0025 0.5
0.0600075 0.000555 0.0025 0.5
0.0510998 0.031635 -1.21764e-18 0.5
0.0511175 0.0315491 -0.0025 0.5
0.0511175 0.0315491 0.0025 0.5
0.0602853 0.0002775 0.0025 0.5
0.0602853 0.0002775 -0.0025 0.5
0.0511937 0.0321139 -0.00215725 0.5
0.0511937 0.0321139 0.00215725 0.5
0.0511937 0.0321139 -0.0025 0.5
0.0511937 0.0321139 0.0025 0.5
0.0605631 0.0002775 -9.93434e-23 0.5
0.0512968 0.03219 0.0025 0.5
0.0512968 0.03219 -0.0025 0.5
0.0513088 0.0323811 -0.0016393 0.5
0.0513088 0.0323811 0.0016393 0.5
0.0513088 0.0323811 -0.0025 0.5
0.0513088 0.0323811 0.0025 0.5
0.0608409 0.0002775 0.0025 0.5
0.0608409 0.0002775 -0.0025 0.5
0.0514943 0.032961 1.81981e-18 0.5
0.0514694 0.0329485 0.0025 0.5
0.0514694 0.0329485 -0.0025 0.5
0.0611187 0.000555 -0.0025 0.5
0.0611187 0.000555 0.0025 0.5
0.0613966 0.0002775 -0.0025 0.5
0.0613966 0.0002775 0.0025 0.5
0.0516985 0.0333 0.0025 0.5
0.0516985 0.0333 -0.0025 0.5
0.0616744 0.0002775 0 0.5
0.0519244 0.033604 0.0025 0.5
0.0519244 0.033604 -0.0025 0.5
0.0519453 0.0336877 -1.66881e-19 0.5
0.0619522 0.0002775 -0.0025 0.5
0.0619522 0.0002775 0.0025 0.5
0.06223 0.000555 -0.0025 0.5
0.06223 0.000555 0.0025 0.5
0.0520398 0.0342213 -0.00164994 0.5
0.0520398 0.0342213 0.00164994 0.5
0.0520398 0.0342213 0.0025 0.5
0.0520398 0.0342213 -0.0025 0.5
0.0520032 0.03441 0.0025 0.5
0.0520032 0.03441 -0.0025 0.5
0.0521157 0.034523 0.00199112 0.5
0.0521157 0.034523 -0.00199112 0.5
0.0625078 0.0002775 0.0025 0.5
0.0625078 0.0002775 -0.0025 0.5
0.0521157 0.034523 0.0025 0.5
0.0521157 0.034523 -0.0025 0.5
0.0627856 0.0002775 3.76374e-21 0.5
0.052165 0.034965 0 0.5
0.0630634 0.0002775 -0.0025 0.5
0.0630634 0.0002775 0.0025 0.5
0.0521948 0.0354861 0.00234725 0.5
0.0521948 0.0354861 -0.00234725 0.5
0.0521713 0.03552 0.0025 0.5
0.0521713 0.03552 -0.0025 0.5
0.0521948 0.0354861 0.0025 0.5
0.0521948 0.0354861 -0.0025 0.5
0.0522014 0.0355473 0.00237704 0.5
0.0522014 0.0355473 -0.00237704 0.5
0.0522014 0.0355473 0.0025 0.5
0.0522014 0.0355473 -0.0025 0.5
0.0633413 0.000555 -0.0025 0.5
0.0633413 0.000555 0.0025 0.5
0.0522288 0.0358563 -0.0025 0.5
0.0522288 0.0358563 0.0025 0.5
0.0522285 0.036075 2.48301e-20 0.5
0.0636191 0.0002775 0.0025 0.5
0.0636191 0.0002775 -0.0025 0.5
0.0522878 0.036571 -0.00223435 0.5
0.0522878 0.036571 0.00223435 0.5
0.0522878 0.036571 0.0025 0.5
0.0522878 0.036571 -0.0025 0.5
0.0638969 0.0002775 -5.95927e-22 0.5
0.0523609 0.03663 0.0025 0.5
0.0523609 0.03663 -0.0025 0.5
0.0523316 0.0367327 -0.00203733 0.5
0.0523316 0.0367327 0.00203733 0.5
0.0523316 0.0367327 0.0025 0.5
0.0523316 0.0367327 -0.0025 0.5
0.0641747 0.0002775 0.0025 0.5
0.0641747 0.0002775 -0.0025 0.5
0.0524025 0.037185 0 0.5
0.0644525 0.000555 -0.0025 0.5
0.0644525 0.000555 0.0025 0.5
0.052474 0.037495 -0.0013963 0.5
0.052474 0.037495 0.0013963 0.5
0.052474 0.037495 0.0025 0.5
0.052474 0.037495 -0.0025 0.5
0.0647303 0.0002775 0.0025 0.5
0.0647303 0.0002775 -0.0025 0.5
0.0526886 0.03774 0.0025 0.5
0.0526886 0.03774 -0.0025 0.5
0.0650081 0.0002775 0 0.5
0.0529143 0.0381652 0.0025 0.5
0.0529143 0.0381652 -0.0025 0.5
0.0529374 0.0382803 0 0.5
0.0652859 0.0002775 0.0025 0.5
0.0652859 0.0002775 -0.0025 0.5
0.0529949 0.0385053 0.0025 0.5
0.0529949 0.0385053 -0.0025 0.5
0.0655638 0.000555 -0.0025 0.5
0.0655638 0.000555 0.0025 0.5
0.0530141 0.03885 0.0025 0.5
0.0530141 0.03885 -0.0025 0.5
0.0658416 0.0002775 0.0025 0.5
0.0658416 0.0002775 -0.0025 0.5
0.0531669 0.0390229 -0.00172131 0.5
0.0531669 0.0390229 0.00172131 0.5
0.0531669 0.0390229 0.0025 0.5
0.0531669 0.0390229 -0.0025 0.5
0.0661194 0.0002775 -1.81913e-21 0.5
0.0532214 0.039405 -1.14558e-19 0.5
0.0663972 0.0002775 0.0025 0.5
0.0663972 0.0002775 -0.0025 0.5
0.0532605 0.0398805 0.00214208 0.5
0.0532605 0.0398805 -0.00214208 0.5
0.0532605 0.0398805 0.0025 0.5
0.0532605 0.0398805 -0.0025 0.5
0.0532196 0.03996 0.0025 0.5
0.0532196 0.03996 -0.0025 0.5
0.0532814 0.0400185 -0.00223632 0.5
0.0532814 0.0400185 0.00223632 0.5
0.0532814 0.0400185 0.0025 0.5
0.0532814 0.0400185 -0.0025 0.5
0.066675 0.000555 -0.0025 0.5
0.066675 0.000555 0.0025 0.5
0.0533164 0.040515 4.47483e-20 0.5
0.0669528 0.0002775 0.0025 0.5
0.0669528 0.0002775 -0.0025 0.5
0.0672306 0.0002775 9.10876e-20 0.5
0.053328 0.041058 -0.00244579 0.5
0.053328 0.041058 0.00244579 0.5
0.0533174 0.04107 0.0025 0.5
0.0533174 0.04107 -0.0025 0.5
0.053328 0.041058 -0.0025 0.5
0.053328 0.041058 0.0025 0.5
0.0533289 0.0410811 -0.00245012 0.5
0.0533289 0.0410811 0.00245012 0.5
0.0533289 0.0410811 -0.0025 0.5
0.0533289 0.0410811 0.0025 0.5
0.0675084 0.0002775 0.0025 0.5
0.0675084 0.0002775 -0.0025 0.5
0.05334 0.041625 -6.29297e-19 0.5
0.0677863 0.000555 -0.0025 0.5
0.0677863 0.000555 0.0025 0.5
0.05334 0.0420415 -0.0025 0.5
0.05334 0.0420415 0.0025 0.5
0.0533416 0.0421784 -0.00249276 0.5
0.0533416 0.0421784 0.00249276 0.5
0.0533416 0.0421784 0.0025 0.5
0.0533416 0.0421784 -0.0025 0.5
0.0533416 0.0421816 -0.00249268 0.5
0.0533416 0.0421816 0.00249268 0.5
0.0533416 0.0421816 0.0025 0.5
0.0533416 0.0421816 -0.0025 0.5
0.0533432 0.04218 0.0025 0.5
0.0533432 0.04218 -0.0025 0.5
0.0680641 0.0002775 0.0025 0.5
0.0680641 0.0002775 -0.0025 0.5
0.0683419 0.0002775 1.14121e-19 0.5
0.0533432 0.042735 6.54929e-19 0.5
0.0686197 0.0002775 0.0025 0.5
0.0686197 0.0002775 -0.0025 0.5
0.0534091 0.043221 -0.00218909 0.5
0.0534091 0.043221 0.00218909 0.5
0.0534091 0.043221 -0.0025 0.5
0.0534091 0.043221 0.0025 0.5
0.053496 0.04329 0.0025 0.5
0.053496 0.04329 -0.0025 0.5
0.0534721 0.0434219 0.00190567 0.5
0.0534721 0.0434219 -0.00190567 0.5
0.0534721 0.0434219 0.0025 0.5
0.0534721 0.0434219 -0.0025 0.5
0.0688975 0.000555 -0.0025 0.5
0.0688975 0.000555 0.0025 0.5
0.0535507 0.043845 4.15373e-21 0.5
0.0691753 0.0002775 0.0025 0.5
0.0691753 0.0002775 -0.0025 0.5
0.0535851 0.0441552 -0.00139715 0.5
0.0535851 0.0441552 0.00139715 0.5
0.0694531 0.0002775 9.36031e-20 0.5
0.0535851 0.0441552 0.0025 0.5
0.0535851 0.0441552 -0.0025 0.5
0.0537348 0.0444 0.0025 0.5
0.0537348 0.0444 -0.0025 0.5
0.0697309 0.0002775 0.0025 0.5
0.0697309 0.0002775 -0.0025 0.5
0.0537479 0.0448074 0.0025 0.5
0.0537479 0.0448074 -0.0025 0.5
0.0700088 0.000555 -0.0025 0.5
0.0700088 0.000555 0.0025 0.5
0.0537655 0.0449444 0 0.5
0.0537798 0.0450707 0.0025 0.5
0.0537798 0.0450707 -0.0025 0.5
0.0702866 0.0002775 0.0025 0.5
0.0702866 0.0002775 -0.0025 0.5
0.0705644 0.0002775 2.66209e-19 0.5
0.0538829 0.04551 0.0025 0.5
0.0538829 0.04551 -0.0025 0.5
0.0708422 0.0002775 0.0025 0.5
0.0708422 0.0002775 -0.0025 0.5
0.0539735 0.0460293 0 0.5
0.0539731 0.0459876 -0.0025 0.5
0.0539731 0.0459876 0.0025 0.5
0.0539866 0.0461559 -0.0025 0.5
0.0539866 0.0461559 0.0025 0.5
0.07112 0.000555 -0.0025 0.5
0.07112 0.000555 0.0025 0.5
0.053981 0.04662 0.0025 0.5
0.053981 0.04662 -0.0025 0.5
0.0713978 0.0002775 0.0025 0.5
0.0713978 0.0002775 -0.0025 0.5
0.0716756 0.0002775 9.36031e-20 0.5
0.0540882 0.0469826 -0.0025 0.5
0.0540882 0.0469826 0.0025 0.5
0.0540984 0.0471814 7.59181e-22 0.5
0.0541074 0.0473866 0.0025 0.5
0.0541074 0.0473866 -0.0025 0.5
0.0719534 0.0002775 0.0025 0.5
0.0719534 0.0002775 -0.0025 0.5
0.0540462 0.04773 0.0025 0.5
0.0540462 0.04773 -0.0025 0.5
0.0722313 0.000555 -0.0025 0.5
0.0722313 0.000555 0.0025 0.5
0.0541542 0.0480267 0.0025 0.5
0.0541542 0.0480267 -0.0025 0.5
0.0725091 0.0002775 0.0025 0.5
0.0725091 0.0002775 -0.0025 0.5
0.0541623 0.04829 -2.64297e-18 0.5
0.0727869 0.0002775 1.145e-19 0.5
0.0541693 0.0485584 0.0025 0.5
0.0541693 0.0485584 -0.0025 0.5
0.054088 0.04884 0.0025 0.5
0.054088 0.04884 -0.0025 0.5
0.0730647 0.0002775 0.0025 0.5
0.0730647 0.0002775 -0.0025 0.5
0.0541925 0.0490985 0.00133579 0.5
0.0541925 0.0490985 -0.00133579 0.5
0.0541925 0.0490985 0.0025 0.5
0.0541925 0.0490985 -0.0025 0.5
0.0541987 0.049395 3.8685e-18 0.5
0.0733425 0.000555 -0.0025 0.5
0.0733425 0.000555 0.0025 0.5
0.0542025 0.0497015 0.00138068 0.5
0.0542025 0.0497015 -0.00138068 0.5
0.0542025 0.0497015 0.0025 0.5
0.0542025 0.0497015 -0.0025 0.5
0.0736203 0.0002775 0.0025 0.5
0.0736203 0.0002775 -0.0025 0.5
0.0541133 0.04995 0.0025 0.5
0.0541133 0.04995 -0.0025 0.5
0.0542142 0.0501868 0.00143331 0.5
0.0542142 0.0501868 -0.00143331 0.5
0.0738981 0.0002775 1.12679e-19 0.5
0.0542142 0.0501868 0.0025 0.5
0.0542142 0.0501868 -0.0025 0.5
0.054218 0.050505 2.53572e-18 0.5
0.0741759 0.0002775 0.0025 0.5
0.0741759 0.0002775 -0.0025 0.5
0.0542198 0.0508288 -0.00145853 0.5
0.0542198 0.0508288 0.00145853 0.5
0.0542198 0.0508288 0.0025 0.5
0.0542198 0.0508288 -0.0025 0.5
0.054127 0.05106 -0.0025 0.5
0.054127 0.05106 0.0025 0.5
0.0744538 0.000555 -0.0025 0.5
0.0744538 0.000555 0.0025 0.5
0.0542249 0.0512861 0.00148145 0.5
0.0542249 0.0512861 -0.00148145 0.5
0.0542249 0.0512861 0.0025 0.5
0.0542249 0.0512861 -0.0025 0.5
0.0747316 0.0002775 0.0025 0.5
0.0747316 0.0002775 -0.0025 0.5
0.0542267 0.051615 -4.75281e-18 0.5
0.0750094 0.0002775 1.14375e-19 0.5
0.0542264 0.0519454 0.00148822 0.5
0.0542264 0.0519454 -0.00148822 0.5
0.0542264 0.0519454 0.0025 0.5
0.0542264 0.0519454 -0.0025 0.5
0.0541307 0.05217 0.0025 0.5
0.0541307 0.05217 -0.0025 0.5
0.0752872 0.0002775 0.0025 0.5
0.0752872 0.0002775 -0.0025 0.5
0.0542255 0.0523955 0.00148434 0.5
0.0542255 0.0523955 -0.00148434 0.5
0.0542255 0.0523955 0.0025 0.5
0.0542255 0.0523955 -0.0025 0.5
0.075565 0.000555 -0.0025 0.5
0.075565 0.000555 0.0025 0.5
0.0542252 0.052725 2.3386e-18 0.5
0.0542228 0.0530518 -0.00147199 0.5
0.0542228 0.0530518 0.00147199 0.5
0.0758428 0.0002775 0.0025 0.5
0.0758428 0.0002775 -0.0025 0.5
0.0542228 0.0530518 -0.0025 0.5
0.0542228 0.0530518 0.0025 0.5
0.054124 0.05328 0.0025 0.5
0.054124 0.05328 -0.0025 0.5
0.0761206 0.0002775 1.14623e-19 0.5
0.0542158 0.0535152 0.00144075 0.5
0.0542158 0.0535152 -0.00144075 0.5
0.0542158 0.0535152 0.0025 0.5
0.0542158 0.0535152 -0.0025 0.5
0.0542134 0.053835 1.12416e-18 0.5
0.0763984 0.0002775 0.0025 0.5
0.0763984 0.0002775 -0.0025 0.5
0.0542091 0.0541481 0.00141056 0.5
0.0542091 0.0541481 -0.00141056 0.5
0.0542091 0.0541481 -0.0025 0.5
0.0542091 0.0541481 0.0025 0.5
0.0766763 0.000555 -0.0025 0.5
0.0766763 0.000555 0.0025 0.5
0.0541075 0.05439 0.0025 0.5
0.0541075 0.05439 -0.0025 0.5
0.0541953 0.0546457 -0.00134827 0.5
0.0541953 0.0546457 0.00134827 0.5
0.0769541 0.0002775 0.0025 0.5
0.0769541 0.0002775 -0.0025 0.5
0.0541953 0.0546457 0.0025 0.5
0.0541953 0.0546457 -0.0025 0.5
0.0541911 0.054945 -1.02514e-18 0.5
0.0772319 0.0002775 1.08196e-19 0.5
0.0541851 0.0552341 0.00130235 0.5
0.0541851 0.0552341 -0.00130235 0.5
0.0541851 0.0552341 0.0025 0.5
0.0541851 0.0552341 -0.0025 0.5
0.0540812 0.0555 0.0025 0.5
0.0540812 0.0555 -0.0025 0.5
0.0775097 0.0002775 0.0025 0.5
0.0775097 0.0002775 -0.0025 0.5
0.0541616 0.0557893 0.0025 0.5
0.0541616 0.0557893 -0.0025 0.5
0.0777875 0.000555 -0.0025 0.5
0.0777875 0.000555 0.0025 0.5
0.0541553 0.0560506 1.84026e-19 0.5
0.0780653 0.0002775 0.0025 0.5
0.0780653 0.0002775 -0.0025 0.5
0.0541483 0.0563074 0.0025 0.5
0.0541483 0.0563074 -0.0025 0.5
0.0540438 0.05661 0.0025 0.5
0.0540438 0.05661 -0.0025 0.5
0.0783431 0.0002775 8.26565e-20 0.5
0.0541084 0.0569525 0.0025 0.5
0.0541084 0.0569525 -0.0025 0.5
0.0786209 0.0002775 0.0025 0.5
0.0786209 0.0002775 -0.0025 0.5
0.0541012 0.0571601 -1.69497e-19 0.5
0.0540936 0.0573627 0.0025 0.5
0.0540936 0.0573627 -0.0025 0.5
0.0788988 0.000555 -0.0025 0.5
0.0788988 0.000555 0.0025 0.5
0.0539943 0.05772 0.0025 0.5
0.0539943 0.05772 -0.0025 0.5
0.0791766 0.0002775 0.0025 0.5
0.0791766 0.0002775 -0.0025 0.5
0.0540273 0.0581435 0.0025 0.5
0.0540273 0.0581435 -0.0025 0.5
0.0794544 0.0002775 9.54222e-20 0.5
0.0540213 0.058271 -1.78656e-19 0.5
0.0540152 0.0583944 0.0025 0.5
0.0540152 0.0583944 -0.0025 0.5
0.0797322 0.0002775 0.0025 0.5
0.0797322 0.0002775 -0.0025 0.5
0.0539338 0.05883 0.0025 0.5
0.0539338 0.05883 -0.0025 0.5
0.08001 0.000555 -0.0025 0.5
0.08001 0.000555 0.0025 0.5
0.0539057 0.0593917 -3.93887e-24 0.5
0.0539072 0.0593734 0.0025 0.5
0.0539072 0.0593734 -0.0025 0.5
0.0539059 0.0593952 0.0025 0.5
0.0539059 0.0593952 -0.0025 0.5
0.0802878 0.0002775 0.0025 0.5
0.0802878 0.0002775 -0.0025 0.5
0.0805656 0.0002775 1.15842e-19 0.5
0.0538654 0.05994 -0.0025 0.5
0.0538654 0.05994 0.0025 0.5
0.0808434 0.0002775 0.0025 0.5
0.0808434 0.0002775 -0.0025 0.5
0.0537841 0.0603836 -0.0025 0.5
0.0537841 0.0603836 0.0025 0.5
0.0537774 0.0604996 -6.64539e-21 0.5
0.0537704 0.0606201 -0.0025 0.5
0.0537704 0.0606201 0.0025 0.5
0.0811213 0.000555 -0.0025 0.5
0.0811213 0.000555 0.0025 0.5
0.0537934 0.06105 0.0025 0.5
0.0537934 0.06105 -0.0025 0.5
0.0813991 0.0002775 0.0025 0.5
0.0813991 0.0002775 -0.0025 0.5
0.0536848 0.0613945 0.0025 0.5
0.0536848 0.0613945 -0.0025 0.5
0.0816769 0.0002775 9.5745e-20 0.5
0.0536737 0.0616125 2.04205e-19 0.5
0.0536623 0.0618381 0.0025 0.5
0.0536623 0.0618381 -0.0025 0.5
0.0819547 0.0002775 0.0025 0.5
0.0819547 0.0002775 -0.0025 0.5
0.0537228 0.06216 0.0025 0.5
0.0537228 0.06216 -0.0025 0.5
0.0822325 0.000555 -0.0025 0.5
0.0822325 0.000555 0.0025 0.5
0.0536068 0.0624265 -0.00129941 0.5
0.0536068 0.0624265 0.00129941 0.5
0.0536068 0.0624265 0.0025 0.5
0.0536068 0.0624265 -0.0025 0.5
0.0535938 0.062715 2.26985e-20 0.5
0.0825103 0.0002775 0.0025 0.5
0.0825103 0.0002775 -0.0025 0.5
0.0535814 0.0630289 -0.00141394 0.5
0.0535814 0.0630289 0.00141394 0.5
0.0535814 0.0630289 -0.0025 0.5
0.0535814 0.0630289 0.0025 0.5
0.0827881 0.0002775 8.32524e-20 0.5
0.0536582 0.06327 0.0025 0.5
0.0536582 0.06327 -0.0025 0.5
0.0535471 0.0634769 -0.00156802 0.5
0.0535471 0.0634769 0.00156802 0.5
0.0535471 0.0634769 0.0025 0.5
0.0535471 0.0634769 -0.0025 0.5
0.0830659 0.0002775 0.0025 0.5
0.0830659 0.0002775 -0.0025 0.5
0.0535343 0.063825 -3.35289e-20 0.5
0.0833437 0.000555 -0.0025 0.5
0.0833437 0.000555 0.0025 0.5
0.0535222 0.064198 -0.00168022 0.5
0.0535222 0.064198 0.00168022 0.5
0.0535222 0.064198 0.0025 0.5
0.0535222 0.064198 -0.0025 0.5
0.0836216 0.0002775 0.0025 0.5
0.0836216 0.0002775 -0.0025 0.5
0.0536012 0.06438 0.0025 0.5
0.0536012 0.06438 -0.0025 0.5
0.0535006 0.0645405 -0.00177722 0.5
0.0535006 0.0645405 0.00177722 0.5
0.0535006 0.0645405 0.0025 0.5
0.0535006 0.0645405 -0.0025 0.5
0.0838994 0.0002775 3.228e-22 0.5
0.0534886 0.064935 -3.14848e-20 0.5
0.0841772 0.0002775 0.0025 0.5
0.0841772 0.0002775 -0.0025 0.5
0.0535106 0.0653195 -0.0017322 0.5
0.0535106 0.0653195 0.0017322 0.5
0.0535106 0.0653195 0.0025 0.5
0.0535106 0.0653195 -0.0025 0.5
0.084455 0.000555 -0.0025 0.5
0.084455 0.000555 0.0025 0.5
0.0536247 0.06549 0.0025 0.5
0.0536247 0.06549 -0.0025 0.5
0.0847328 0.0002775 0.0025 0.5
0.0847328 0.0002775 -0.0025 0.5
0.0535578 0.0657076 -0.00151986 0.5
0.0535578 0.0657076 0.00151986 0.5
0.0535578 0.0657076 0.0025 0.5
0.0535578 0.0657076 -0.0025 0.5
0.0850106 0.0002775 0 0.5
0.0537377 0.0662028 0.0025 0.5
0.0537377 0.0662028 -0.0025 0.5
0.0852884 0.0002775 0.0025 0.5
0.0852884 0.0002775 -0.0025 0.5
0.0538535 0.0661923 -2.37046e-21 0.5
0.0540536 0.0662028 0.0025 0.5
0.0540536 0.0662028 -0.0025 0.5
0.0544513 0.0659635 -0.0025 0.5
0.0544513 0.0659635 0.0025 0.5
0.0855663 0.000555 -0.0025 0.5
0.0855663 0.000555 0.0025 0.5
0.0858441 0.0002775 0.0025 0.5
0.0858441 0.0002775 -0.0025 0.5
0.0547291 0.0663225 0.0025 0.5
0.0547291 0.0663225 -0.0025 0.5
0.0861219 0.0002775 0 0.5
0.0550069 0.0663225 0 0.5
0.0555625 0.066045 -0.0025 0.5
0.0555625 0.066045 0.0025 0.5
0.0552847 0.0663225 0.0025 0.5
0.0552847 0.0663225 -0.0025 0.5
0.0863997 0.0002775 0.0025 0.5
0.0863997 0.0002775 -0.0025 0.5
0.0866775 0.000555 -0.0025 0.5
0.0866775 0.000555 0.0025 0.5
0.0558403 0.0663225 0.0025 0.5
0.0558403 0.0663225 -0.0025 0.5
0.0561181 0.0663225 0 0.5
0.0869553 0.0002775 0.0025 0.5
0.0869553 0.0002775 -0.0025 0.5
0.0566738 0.066045 -0.0025 0.5
0.0566738 0.066045 0.0025 0.5
0.0563959 0.0663225 0.0025 0.5
0.0563959 0.0663225 -0.0025 0.5
0.0872331 0.0002775 0 0.5
0.0569516 0.0663225 0.0025 0.5
0.0569516 0.0663225 -0.0025 0.5
0.0875109 0.0002775 0.0025 0.5
0.0875109 0.0002775 -0.0025 0.5
0.0572294 0.0663225 0 0.5
0.057785 0.066045 -0.0025 0.5
0.057785 0.066045 0.0025 0.5
0.0575072 0.0663225 0.0025 0.5
0.0575072 0.0663225 -0.0025 0.5
0.0877888 0.000555 -0.0025 0.5
0.0877888 0.000555 0.0025 0.5
0.0880666 0.0002775 -0.00125 0.5
0.0880666 0.0002775 0.00125 0.5
0.0880666 0.0002775 0.0025 0.5
0.0880666 0.0002775 -0.0025 0.5
0.0580628 0.0663225 -0.0025 0.5
0.0580628 0.0663225 0.0025 0.5
0.0583406 0.0663225 0 0.5
0.0883444 0.0002775 0 0.5
0.0883444 0.00111 0.0025 0.5
0.0883444 0.00111 -0.0025 0.5
0.0883444 0.00222 0.0025 0.5
0.0883444 0.00222 -0.0025 0.5
0.0883444 0.00333 0.0025 0.5
0.0883444 0.00333 -0.0025 0.5
0.0883444 0.00444 0.0025 0.5
0.0883444 0.00444 -0.0025 0.5
0.0588963 0.066045 -0.0025 0.5
0.0588963 0.066045 0.0025 0.5
0.0586184 0.0663225 -0.0025 0.5
0.0586184 0.0663225 0.0025 0.5
0.0883444 0.00555 0.0025 0.5
0.0883444 0.00555 -0.0025 0.5
0.0886222 0.000555 0 0.5
0.0883444 0.00666 0.0025 0.5
0.0883444 0.00666 -0.0025 0.5
0.0886222 0.0002775 -0.00125 0.5
0.0886222 0.0002775 0.00125 0.5
0.0886222 0.0008325 0.00125 0.5
0.0886222 0.0008325 -0.00125 0.5
0.0886222 0.001665 0 0.5
0.0886222 0.0002775 0.0025 0.5
0.0886222 0.0002775 -0.0025 0.5
0.0886222 0.0008325 0.0025 0.5
0.0886222 0.0008325 -0.0025 0.5
0.0886222 0.002775 0 0.5
0.0886222 0.0013875 0.0025 0.5
0.0886222 0.0013875 -0.0025 0.5
0.0886222 0.0019425 0.0025 0.5
0.0886222 0.0019425 -0.0025 0.5
0.0886222 0.0024975 0.0025 0.5
0.0886222 0.0024975 -0.0025 0.5
0.0886222 0.003885 0 0.5
0.0886222 0.0030525 0.0025 0.5
0.0886222 0.0030525 -0.0025 0.5
0.0883444 0.00777 0.0025 0.5
0.0883444 0.00777 -0.0025 0.5
0.0886222 0.0036075 0.0025 0.5
0.0886222 0.0036075 -0.0025 0.5
0.0886222 0.0041625 0.0025 0.5