0 	0 	0 	0
0.000446734 	5.73166e-06 	0.000198567 	1.0311e-27
0.000893467 	1.14633e-05 	0.000397133 	2.0622e-27
0.0013402 	1.78008e-05 	0.000491729 	2.22795e-27
0.00178693 	2.47145e-05 	0.000487425 	1.57057e-27
0.00223367 	3.16479e-05 	0.000480567 	9.20282e-28
0.0026804 	3.93493e-05 	0.000374063 	5.46563e-28
0.00312714 	4.70508e-05 	0.000267559 	1.72845e-28
0.00357387 	5.15687e-05 	0.000153035 	0
0.0040206 	5.33472e-05 	3.16108e-05 	0
0.00446734 	5.40091e-05 	-8.73934e-05 	0
0.00491407 	3.34556e-05 	-0.000160416 	0
0.0053608 	1.29022e-05 	-0.000233438 	0
0.00580754 	-2.98015e-05 	-0.00026286 	0
0.00625427 	-8.97331e-05 	-0.000258371 	0
0.00670101 	-0.000153432 	-0.000248354 	-9.7078e-29
0.00714774 	-0.000263587 	-0.000170151 	-1.39145e-27
0.00759447 	-0.000373743 	-9.19478e-05 	-2.68582e-27
0.00804121 	-0.000516902 	1.81181e-05 	-3.96126e-27
0.00848794 	-0.000683232 	0.000150556 	-5.22341e-27
0.00893467 	-0.000855676 	0.00028666 	-6.2299e-27
0.00938141 	-0.00108314 	0.000455761 	-4.93552e-27
0.00982814 	-0.00131059 	0.000624863 	-3.64115e-27
0.0102749 	-0.00157824 	0.000810298 	-2.36652e-27
0.0107216 	-0.0018713 	0.00100607 	-1.10438e-27
0.0111683 	-0.0021727 	0.00120442 	1.26586e-29
0.0116151 	-0.00253246 	0.00142084 	1.13927e-28
0.0120618 	-0.00289222 	0.00163726 	2.15195e-28
0.0125085 	-0.00329085 	0.00186209 	6.51908e-28
0.0129553 	-0.00371158 	0.00209171 	1.27936e-27
0.013402 	-0.00413935 	0.00232157 	1.79751e-27
0.0138487 	-0.00460706 	0.00255281 	1.69624e-27
0.0142955 	-0.00507476 	0.00278405 	1.59497e-27
0.0147422 	-0.0055599 	0.00300657 	1.14511e-27
0.0151889 	-0.00605392 	0.00322465 	5.17651e-28
0.0156357 	-0.00654841 	0.00343778 	0
0.0160824 	-0.00704515 	0.00362764 	0
0.0165291 	-0.00754188 	0.0038175 	0
0.0169759 	-0.00802523 	0.00397954 	0
0.0174226 	-0.00850249 	0.00412893 	0
0.0178693 	-0.00897238 	0.00426875 	0
0.0183161 	-0.00941278 	0.00437026 	0
0.0187628 	-0.00985318 	0.00447176 	0
0.0192095 	-0.0102596 	0.00453767 	0
0.0196563 	-0.0106523 	0.00458921 	0
0.020103 	-0.0110334 	0.00463008 	0
0.0205497 	-0.0113741 	0.00463419 	0
0.0209965 	-0.0117149 	0.0046383 	0
0.0214432 	-0.0120181 	0.0046116 	0
0.0218899 	-0.012308 	0.00457394 	0
0.0223367 	-0.0125861 	0.00452762 	1.27335e-27
0.0227834 	-0.0128293 	0.00445532 	6.36677e-27
0.0232302 	-0.0130725 	0.00438302 	1.14602e-26
0.0236769 	-0.0132846 	0.0042898 	1.68004e-26
0.0241236 	-0.0134869 	0.00419005 	2.22175e-26
0.0245704 	-0.0136796 	0.00408451 	2.47442e-26
0.0250171 	-0.0138469 	0.00396369 	1.96508e-26
0.0254638 	-0.0140141 	0.00384287 	1.45574e-26
0.0259106 	-0.0141576 	0.00370947 	1.84772e-26
0.0263573 	-0.0142947 	0.00357268 	2.48291e-26
0.026804 	-0.0144239 	0.00343225 	3.29112e-26
0.0272508 	-0.0145346 	0.00328334 	4.503e-26
0.0276975 	-0.0146453 	0.00313442 	5.71488e-26
0.0281442 	-0.014737 	0.0029779 	4.98587e-26
0.028591 	-0.0148241 	0.00281962 	3.80896e-26
0.0290377 	-0.0149043 	0.00265892 	2.62069e-26
0.0294844 	-0.01497 	0.00249321 	1.40881e-26
0.0299312 	-0.0150357 	0.00232749 	1.96931e-27
0.0303779 	-0.0150846 	0.00215665 	0
0.0308246 	-0.0151302 	0.00198481 	0
0.0312714 	-0.0151691 	0.00181115 	0
0.0317181 	-0.0151958 	0.0016341 	0
0.0321648 	-0.0152225 	0.00145705 	0
0.0326116 	-0.0152335 	0.00127602 	2.4766e-26
0.0330583 	-0.015242 	0.00109435 	5.34801e-26
0.033505 	-0.015244 	0.000911104 	8.24904e-26
0.0339518 	-0.015235 	0.000725223 	1.11994e-25
0.0343985 	-0.0152261 	0.000539342 	1.41498e-25
0.0348452 	-0.0152019 	0.000349977 	1.19333e-25
0.035292 	-0.0151757 	0.00016017 	9.0619e-26
0.0357387 	-0.0151427 	-3.11106e-05 	6.1589e-26
0.0361854 	-0.0150995 	-0.000224602 	3.20853e-26
0.0366322 	-0.0150563 	-0.000418093 	2.58157e-27
0.0370789 	-0.0149974 	-0.000614681 	-6.72199e-27
0.0375256 	-0.014937 	-0.000811566 	-1.40886e-26
0.0379724 	-0.014869 	-0.00100969 	-2.14903e-26
0.0384191 	-0.0147909 	-0.00120948 	-2.89395e-26
0.0388658 	-0.0147127 	-0.00140928 	-3.63888e-26
0.0393126 	-0.0146173 	-0.00161104 	-2.99482e-26
0.0397593 	-0.0145206 	-0.00181292 	-2.25816e-26
0.040206 	-0.0144152 	-0.00201516 	-1.51779e-26
0.0406528 	-0.0142989 	-0.00221783 	-7.7286e-27
0.0410995 	-0.0141826 	-0.0024205 	-2.79347e-28
0.0415462 	-0.014046 	-0.00262202 	0
0.041993 	-0.0139086 	-0.0028235 	0
0.0424397 	-0.0137602 	-0.00302306 	0
0.0428864 	-0.0135998 	-0.00322049 	0
0.0433332 	-0.0134393 	-0.00341792 	0
0.0437799 	-0.0132537 	-0.00360743 	-7.15847e-27
0.0442266 	-0.0130677 	-0.00379684 	-1.44075e-26
0.0446734 	-0.0128675 	-0.00397957 	-2.15061e-26
0.0451201 	-0.0126531 	-0.0041556 	-2.84541e-26
0.0455668 	-0.0124383 	-0.00433138 	-3.52246e-26
0.0460136 	-0.012192 	-0.00448706 	-2.79756e-26
0.0464603 	-0.0119456 	-0.00464274 	-2.07265e-26
0.046907 	-0.0116804 	-0.00478315 	-1.36355e-26
0.0473538 	-0.0113982 	-0.00490973 	-6.68746e-27
0.0478005 	-0.0111144 	-0.00503483 	1.96933e-28
0.0482472 	-0.0107924 	-0.0051219 	5.44848e-27
0.048694 	-0.0104704 	-0.00520897 	1.07e-26
0.0491407 	-0.0101248 	-0.00526794 	1.55107e-26
0.0495874 	-0.00975993 	-0.00530393 	1.99606e-26
0.0500342 	-0.00939233 	-0.005336 	2.38042e-26
0.0504809 	-0.0089837 	-0.00530941 	1.85526e-26
0.0509276 	-0.00857507 	-0.00528282 	1.33011e-26
0.0513744 	-0.00814308 	-0.00521489 	1.22251e-26
0.0518211 	-0.00769381 	-0.00511639 	1.42356e-26
0.0522678 	-0.00724179 	-0.00501122 	1.64847e-26
0.0527146 	-0.00676106 	-0.0048366 	2.12224e-26
0.0531613 	-0.00628032 	-0.00466198 	2.59602e-26
0.053608 	-0.00579079 	-0.00444422 	2.3979e-26
0.0540548 	-0.00529539 	-0.00419771 	1.75187e-26
0.0545015 	-0.00480109 	-0.00394483 	1.12522e-26
0.0549482 	-0.00431542 	-0.00364172 	6.5144e-27
0.055395 	-0.00382975 	-0.0033386 	1.77666e-27
0.0558417 	-0.0033685 	-0.0030167 	0
0.0562884 	-0.00292189 	-0.00268353 	0
0.0567352 	-0.00248458 	-0.0023509 	0
0.0571819 	-0.00210552 	-0.00202172 	0
0.0576286 	-0.00172646 	-0.00169253 	0
0.0580754 	-0.00140431 	-0.00138797 	0
0.0585221 	-0.0011128 	-0.00109667 	0
0.0589688 	-0.000836426 	-0.000815602 	-8.64493e-29
0.0594156 	-0.000638017 	-0.000587284 	-6.18445e-28
0.0598623 	-0.000439608 	-0.000358966 	-1.15044e-27
0.060309 	-0.000297707 	-0.000181124 	-1.6567e-27
0.0607558 	-0.000183015 	-2.75853e-05 	-2.15057e-27
0.0612025 	-8.04957e-05 	0.000111739 	-2.45209e-27
0.0616492 	-3.07255e-05 	0.000189467 	-1.92009e-27
0.062096 	1.90447e-05 	0.000267195 	-1.38809e-27
0.0625427 	3.85733e-05 	0.000294172 	-8.82789e-28
0.0629894 	4.51413e-05 	0.000299397 	-3.88921e-28
0.0634362 	4.76571e-05 	0.00029028 	0
0.0638829 	3.5156e-05 	0.000228014 	0
0.0643296 	2.26548e-05 	0.000165747 	0
0.0647764 	1.35995e-05 	0.000109841 	0
0.0652231 	5.85135e-06 	5.63481e-05 	0
0.0656698 	-6.90079e-08 	1.40721e-05 	2.48386e-31
0.0661166 	-1.21065e-07 	7.80915e-06 	1.29422e-30
0.0665633 	-1.73121e-07 	1.54616e-06 	2.34006e-30
0.0670101 	-2.05139e-07 	-1.98639e-08 	3.40271e-30
0.0674568 	-2.30477e-07 	-2.02299e-08 	4.47098e-30
0.0679035 	-2.49378e-07 	-2.07127e-08 	4.98429e-30
0.0683503 	-2.50195e-07 	-2.15236e-08 	3.93846e-30
0.068797 	-2.51011e-07 	-2.23345e-08 	2.89262e-30
0.0692437 	-2.51339e-07 	-2.3706e-08 	1.8294e-30
0.0696905 	-2.51524e-07 	-2.52402e-08 	7.61139e-31
0.0701372 	-2.51506e-07 	-2.69529e-08 	0
0.0705839 	-2.50981e-07 	-2.91076e-08 	0
0.0710307 	-2.50457e-07 	-3.12624e-08 	0
0.0714774 	-2.49351e-07 	-3.38242e-08 	1.52595e-30
0.0719241 	-2.481e-07 	-3.64879e-08 	3.43338e-30
0.0723709 	-2.46625e-07 	-3.92813e-08 	5.45035e-30
0.0728176 	-2.44657e-07 	-4.23605e-08 	7.70831e-30
0.0732643 	-2.42688e-07 	-4.54396e-08 	9.96626e-30
0.0737111 	-2.40139e-07 	-4.88049e-08 	8.78777e-30
0.0741578 	-2.37467e-07 	-5.22309e-08 	6.88034e-30
0.0746045 	-2.34561e-07 	-5.57587e-08 	4.8546e-30
0.0750513 	-2.31197e-07 	-5.94866e-08 	2.59665e-30
0.075498 	-2.27832e-07 	-6.32145e-08 	3.38693e-31
0.0759447 	-2.23886e-07 	-6.71784e-08 	0
0.0763915 	-2.19837e-07 	-7.1184e-08 	0
0.0768382 	-2.15541e-07 	-7.52882e-08 	0
0.0772849 	-2.10811e-07 	-7.95657e-08 	0
0.0777317 	-2.06081e-07 	-8.38432e-08 	0
0.0781784 	-2.00754e-07 	-8.83677e-08 	0
0.0786251 	-1.95342e-07 	-9.29275e-08 	0
0.0790719 	-1.89666e-07 	-9.76069e-08 	0
0.0795186 	-1.83572e-07 	-1.02475e-07 	0
0.0799653 	-1.77477e-07 	-1.07343e-07 	0
0.0804121 	-1.70768e-07 	-1.12526e-07 	0
0.0808588 	-1.6399e-07 	-1.17745e-07 	0
0.0813055 	-1.56931e-07 	-1.23131e-07 	0
0.0817523 	-1.49473e-07 	-1.28757e-07 	0
0.082199 	-1.42014e-07 	-1.34383e-07 	0
0.0826457 	-1.33937e-07 	-1.40455e-07 	0
0.0830925 	-1.2581e-07 	-1.46564e-07 	0
0.0835392 	-1.17401e-07 	-1.52924e-07 	0
0.0839859 	-1.08631e-07 	-1.59608e-07 	0
0.0844327 	-9.98604e-08 	-1.66291e-07 	0
0.0848794 	-9.05262e-08 	-1.73623e-07 	0
0.0853261 	-8.11623e-08 	-1.8099e-07 	0
0.0857729 	-7.15623e-08 	-1.88726e-07 	0
0.0862196 	-6.1688e-08 	-1.96892e-07 	0
0.0866663 	-5.18136e-08 	-2.05058e-07 	0
0.0871131 	-4.15637e-08 	-2.14108e-07 	0
0.0875598 	-3.13041e-08 	-2.23181e-07 	0
0.0880065 	-2.09415e-08 	-1.8318e-07 	0
0.0884533 	-1.04708e-08 	-9.15902e-08 	0
0.0889 	-3.28539e-22 	-3.37371e-21 	0
