0 	0 	0 	0
0.000446734 	0.000135751 	0.00298702 	-9.7636e-26
0.000893467 	0.000271079 	0.00595348 	-1.92065e-25
0.0013402 	0.000365766 	0.00820114 	-2.08796e-25
0.00178693 	0.000422506 	0.00977594 	-1.55585e-25
0.00223367 	0.000475521 	0.0113197 	-1.00575e-25
0.0026804 	0.000460024 	0.0120617 	-5.9357e-26
0.00312714 	0.000444527 	0.0128036 	-1.81394e-26
0.00357387 	0.000418665 	0.0133703 	-1.43822e-26
0.0040206 	0.000385871 	0.0137925 	-4.2304e-26
0.00446734 	0.000352439 	0.0142056 	-7.21434e-26
0.00491407 	0.000320015 	0.0144538 	-1.06051e-25
0.0053608 	0.00028759 	0.014702 	-1.39959e-25
0.00580754 	0.000256115 	0.0148614 	-1.42927e-25
0.00625427 	0.000226252 	0.0149519 	-1.22968e-25
0.00670101 	0.000196157 	0.0150316 	-1.00494e-25
0.00714774 	0.000168384 	0.0149811 	-6.65863e-26
0.00759447 	0.000140612 	0.0149305 	-3.26785e-26
0.00804121 	0.000113901 	0.014813 	-1.49515e-26
0.00848794 	8.84275e-05 	0.0146489 	-6.98838e-27
0.00893467 	6.30382e-05 	0.0144761 	0
0.00938141 	4.03411e-05 	0.0142269 	0
0.00982814 	1.76441e-05 	0.0139777 	0
0.0102749 	-3.24296e-06 	0.013691 	0
0.0107216 	-2.28052e-05 	0.0133809 	0
0.0111683 	-4.19972e-05 	0.0130654 	0
0.0116151 	-5.82887e-05 	0.0127139 	0
0.0120618 	-7.45801e-05 	0.0123623 	0
0.0125085 	-8.88025e-05 	0.0119944 	0
0.0129553 	-0.000101882 	0.0116173 	0
0.013402 	-0.000114435 	0.0112383 	0
0.0138487 	-0.000124481 	0.0108489 	0
0.0142955 	-0.000134527 	0.0104595 	0
0.0147422 	-0.000142616 	0.0100689 	0
0.0151889 	-0.000149875 	0.00967789 	0
0.0156357 	-0.000156556 	0.00928803 	0
0.0160824 	-0.000161314 	0.00890394 	0
0.0165291 	-0.000166072 	0.00851985 	0
0.0169759 	-0.000169157 	0.00814509 	0
0.0174226 	-0.000171719 	0.00777459 	0
0.0178693 	-0.000173726 	0.0074078 	0
0.0183161 	-0.000174402 	0.00705583 	0
0.0187628 	-0.000175078 	0.00670387 	0
0.0192095 	-0.000174436 	0.00636754 	0
0.0196563 	-0.000173527 	0.00603752 	0
0.020103 	-0.000172134 	0.00571293 	0
0.0205497 	-0.000169925 	0.00540698 	0
0.0209965 	-0.000167717 	0.00510103 	0
0.0214432 	-0.000164554 	0.0048136 	0
0.0218899 	-0.000161311 	0.00453275 	0
0.0223367 	-0.000157683 	0.00425822 	0
0.0227834 	-0.000153643 	0.00400257 	0
0.0232302 	-0.000149603 	0.00374692 	0
0.0236769 	-0.000144939 	0.00351 	0
0.0241236 	-0.000140312 	0.00327888 	0
0.0245704 	-0.000135409 	0.00305418 	0
0.0250171 	-0.000130375 	0.0028463 	0
0.0254638 	-0.000125341 	0.00263842 	0
0.0259106 	-0.000119954 	0.00244744 	0
0.0263573 	-0.000114664 	0.00226098 	0
0.026804 	-0.000109199 	0.00208032 	0
0.0272508 	-0.000103773 	0.00191307 	0
0.0276975 	-9.83467e-05 	0.00174582 	0
0.0281442 	-9.27713e-05 	0.00159213 	0
0.028591 	-8.73032e-05 	0.00144154 	0
0.0290377 	-8.17489e-05 	0.00129548 	0
0.0294844 	-7.63086e-05 	0.00115875 	0
0.0299312 	-7.08684e-05 	0.00102203 	0
0.0303779 	-6.54197e-05 	0.000894444 	0
0.0308246 	-6.00581e-05 	0.0007686 	0
0.0312714 	-5.46838e-05 	0.00064551 	0
0.0317181 	-4.94355e-05 	0.000527441 	0
0.0321648 	-4.41871e-05 	0.000409373 	0
0.0326116 	-3.90182e-05 	0.000295294 	0
0.0330583 	-3.38965e-05 	0.000181812 	0
0.033505 	-2.88168e-05 	6.88712e-05 	0
0.0339518 	-2.3826e-05 	-4.32586e-05 	0
0.0343985 	-1.88353e-05 	-0.000155388 	0
0.0348452 	-1.39893e-05 	-0.000269165 	0
0.035292 	-9.14392e-06 	-0.000383187 	0
0.0357387 	-4.40068e-06 	-0.00049922 	0
0.0361854 	2.8594e-07 	-0.000618351 	0
0.0366322 	4.97256e-06 	-0.000737482 	0
0.0370789 	9.4303e-06 	-0.000864122 	0
0.0375256 	1.39326e-05 	-0.000991516 	0
0.0379724 	1.82516e-05 	-0.00112369 	-1.48536e-28
0.0384191 	2.25164e-05 	-0.0012624 	-5.17485e-28
0.0388658 	2.67812e-05 	-0.00140111 	-8.86435e-28
0.0393126 	3.06525e-05 	-0.00155314 	-1.30084e-27
0.0397593 	3.46075e-05 	-0.00170607 	-1.73753e-27
0.040206 	3.82576e-05 	-0.0018666 	-2.30213e-27
0.0406528 	4.18075e-05 	-0.00203646 	-3.08374e-27
0.0410995 	4.53574e-05 	-0.00220632 	-3.86535e-27
0.0415462 	4.82586e-05 	-0.0023948 	-4.77923e-27
0.041993 	5.12809e-05 	-0.00258401 	-5.51939e-27
0.0424397 	5.38231e-05 	-0.00278341 	-5.37536e-27
0.0428864 	5.61656e-05 	-0.00299406 	-4.2248e-27
0.0433332 	5.8464e-05 	-0.00320487 	-3.09988e-27
0.0437799 	5.98279e-05 	-0.00343818 	-1.7389e-27
0.0442266 	6.13084e-05 	-0.00367192 	-5.6205e-28
0.0446734 	6.20683e-05 	-0.00391777 	4.86875e-28
0.0451201 	6.24742e-05 	-0.00417571 	1.50631e-27
0.0455668 	6.27073e-05 	-0.00443414 	2.6438e-27
0.0460136 	6.17625e-05 	-0.00471657 	3.52095e-27
0.0464603 	6.08535e-05 	-0.00499915 	4.37746e-27
0.046907 	5.8917e-05 	-0.00529452 	4.22353e-27
0.0473538 	5.64272e-05 	-0.00560139 	3.20409e-27
0.0478005 	5.36682e-05 	-0.00590918 	2.07925e-27
0.0482472 	4.93099e-05 	-0.00623904 	1.22274e-27
0.048694 	4.49516e-05 	-0.00656889 	3.66234e-28
0.0491407 	3.92034e-05 	-0.00691012 	0
0.0495874 	3.26746e-05 	-0.00726053 	0
0.0500342 	2.58029e-05 	-0.00761208 	5.22755e-29
0.0504809 	1.67969e-05 	-0.00797929 	1.35623e-27
0.0509276 	7.79085e-06 	-0.00834649 	2.66018e-27
0.0513744 	-2.98576e-06 	-0.00872045 	4.86402e-27
0.0518211 	-1.47677e-05 	-0.00909917 	7.47918e-27
0.0522678 	-2.69709e-05 	-0.00947844 	9.9571e-27
0.0527146 	-4.1801e-05 	-0.00986165 	8.65315e-27
0.0531613 	-5.66312e-05 	-0.0102449 	7.3492e-27
0.053608 	-7.35523e-05 	-0.0106255 	4.87751e-27
0.0540548 	-9.16545e-05 	-0.0110042 	2.26235e-27
0.0545015 	-0.000110235 	-0.0113813 	0
0.0549482 	-0.000131757 	-0.0117441 	0
0.055395 	-0.00015328 	-0.012107 	0
0.0558417 	-0.000177009 	-0.0124516 	0
0.0562884 	-0.00020198 	-0.012785 	0
0.0567352 	-0.000227405 	-0.0131123 	0
0.0571819 	-0.000255657 	-0.0133997 	0
0.0576286 	-0.000283909 	-0.0136871 	0
0.0580754 	-0.000313922 	-0.0139321 	0
0.0585221 	-0.000344965 	-0.0141538 	0
0.0589688 	-0.00037619 	-0.0143612 	0
0.0594156 	-0.000409072 	-0.0144929 	0
0.0598623 	-0.000441955 	-0.0146246 	0
0.060309 	-0.000474916 	-0.0146772 	0
0.0607558 	-0.000508196 	-0.0146912 	0
0.0612025 	-0.00054097 	-0.0146783 	0
0.0616492 	-0.00057303 	-0.0145482 	0
0.062096 	-0.00060509 	-0.0144181 	0
0.0625427 	-0.000634864 	-0.0141779 	0
0.0629894 	-0.000664178 	-0.0138906 	0
0.0634362 	-0.0006925 	-0.0135698 	0
0.0638829 	-0.000719231 	-0.0131255 	0
0.0643296 	-0.000745963 	-0.0126813 	0
0.0647764 	-0.000752271 	-0.0120752 	0
0.0652231 	-0.000750625 	-0.0114063 	0
0.0656698 	-0.00071918 	-0.0106174 	0
0.0661166 	-0.000588693 	-0.00943059 	0
0.0665633 	-0.000458205 	-0.00824381 	0
0.0670101 	-0.000312068 	-0.00645746 	0
0.0674568 	-0.00016937 	-0.00447281 	0
0.0679035 	-5.82246e-05 	-0.00266014 	0
0.0683503 	-3.16069e-05 	-0.00145342 	0
0.068797 	-4.98932e-06 	-0.000246695 	0
0.0692437 	2.5195e-07 	-1.58041e-06 	0
0.0696905 	5.67355e-08 	-7.37921e-07 	0
0.0701372 	-8.07973e-08 	-1.63519e-07 	0
0.0705839 	-8.8876e-08 	-1.8568e-07 	0
0.0710307 	-9.69547e-08 	-2.0784e-07 	0
0.0714774 	-9.70755e-08 	-2.23466e-07 	0
0.0719241 	-9.51789e-08 	-2.3759e-07 	0
0.0723709 	-9.30297e-08 	-2.50389e-07 	0
0.0728176 	-9.00342e-08 	-2.60436e-07 	0
0.0732643 	-8.70388e-08 	-2.70483e-07 	0
0.0737111 	-8.37815e-08 	-2.78913e-07 	0
0.0741578 	-8.04168e-08 	-2.87029e-07 	0
0.0746045 	-7.70597e-08 	-2.9487e-07 	-3.8437e-29
0.0750513 	-7.36667e-08 	-3.02196e-07 	-1.60424e-28
0.075498 	-7.02737e-08 	-3.09522e-07 	-2.82412e-28
0.0759447 	-6.70004e-08 	-3.16685e-07 	-4.26575e-28
0.0763915 	-6.37437e-08 	-3.23821e-07 	-5.55539e-28
0.0768382 	-6.05591e-08 	-3.31004e-07 	-5.94627e-28
0.0772849 	-5.75097e-08 	-3.38262e-07 	-4.7264e-28
0.0777317 	-5.44603e-08 	-3.45521e-07 	-3.50652e-28
0.0781784 	-5.1603e-08 	-3.53031e-07 	-2.05064e-28
0.0786251 	-4.87805e-08 	-3.60573e-07 	-7.61002e-29
0.0790719 	-4.60346e-08 	-3.68261e-07 	0
0.0795186 	-4.34309e-08 	-3.76167e-07 	0
0.0799653 	-4.08273e-08 	-3.84073e-07 	0
0.0804121 	-3.83914e-08 	-3.92346e-07 	0
0.0808588 	-3.59842e-08 	-4.00655e-07 	0
0.0813055 	-3.36368e-08 	-4.09142e-07 	-1.32259e-28
0.0817523 	-3.13973e-08 	-4.17872e-07 	-4.71308e-28
0.082199 	-2.91578e-08 	-4.26603e-07 	-8.10356e-28
0.0826457 	-2.7035e-08 	-4.35733e-07 	-1.1807e-27
0.0830925 	-2.49319e-08 	-4.44892e-07 	-1.53778e-27
0.0835392 	-2.28653e-08 	-4.54241e-07 	-1.43547e-27
0.0839859 	-2.08674e-08 	-4.63831e-07 	-7.20481e-28
0.0844327 	-1.88694e-08 	-4.73421e-07 	-5.49083e-30
0.0848794 	-1.69328e-08 	-4.83422e-07 	7.77817e-28
0.0853261 	-1.50094e-08 	-4.93443e-07 	1.53053e-27
0.0857729 	-1.30973e-08 	-5.03665e-07 	1.75457e-27
0.0862196 	-1.12188e-08 	-5.14117e-07 	1.37863e-27
0.0866663 	-9.34037e-09 	-5.2457e-07 	1.00268e-27
0.0871131 	-7.46825e-09 	-5.35435e-07 	5.8953e-28
0.0875598 	-5.60601e-09 	-5.46309e-07 	1.93896e-28
0.0880065 	-3.73316e-09 	-4.48941e-07 	0
0.0884533 	-1.86906e-09 	-2.2706e-07 	0
0.0889 	0 	0 	0
