# f_l  POINT_DATA 1324
#  x  y  z  f_l
0.0606368 0.00166411 -1.72605e-19 0.5
0.060601 0.00111 0.0025 0.5
0.060601 0.00111 -0.0025 0.5
0.0605807 0.00222 0.0025 0.5
0.0605807 0.00222 -0.0025 0.5
0.060639 0.00158919 0.0025 0.5
0.060639 0.00158919 -0.0025 0.5
0.0606364 0.00173815 0.0025 0.5
0.0606364 0.00173815 -0.0025 0.5
0.0607311 0.00066506 -6.70769e-22 0.5
0.0606746 0.00277645 -5.03199e-23 0.5
0.0606098 0.00333 0.0025 0.5
0.0606098 0.00333 -0.0025 0.5
0.0606724 0.0026658 -0.0025 0.5
0.0606724 0.0026658 0.0025 0.5
0.0607284 0.000720091 0.0025 0.5
0.0607284 0.000720091 -0.0025 0.5
0.0606768 0.00288854 -0.0025 0.5
0.0606768 0.00288854 0.0025 0.5
0.0607131 0.00388709 -9.16127e-23 0.5
0.0606413 0.00444 0.0025 0.5
0.0606413 0.00444 -0.0025 0.5
0.0607101 0.00373818 0.0025 0.5
0.0607101 0.00373818 -0.0025 0.5
0.0607164 0.0040381 0.0025 0.5
0.0607164 0.0040381 -0.0025 0.5
0.0607549 0.00499801 -1.42597e-19 0.5
0.0606778 0.00555 0.0025 0.5
0.0606778 0.00555 -0.0025 0.5
0.0607505 0.00480783 0.0025 0.5
0.0607505 0.00480783 -0.0025 0.5
0.0607595 0.0051912 0.0025 0.5
0.0607595 0.0051912 -0.0025 0.5
0.0607994 0.00610914 2.52553e-19 0.5
0.0607934 0.00587495 0.0025 0.5
0.0607934 0.00587495 -0.0025 0.5
0.0607199 0.00666 0.0025 0.5
0.0607199 0.00666 -0.0025 0.5
0.0611187 0.000772696 -0.0025 0.5
0.0611187 0.000772696 0.0025 0.5
0.0608059 0.00634746 0.0025 0.5
0.0608059 0.00634746 -0.0025 0.5
0.060841 0.00703163 1.16192e-20 0.5
0.0608385 0.00693994 0.0025 0.5
0.0608385 0.00693994 -0.0025 0.5
0.0607671 0.00777 0.0025 0.5
0.0607671 0.00777 -0.0025 0.5
0.0608547 0.00750622 -0.00131179 0.5
0.0608547 0.00750622 0.00131179 0.5
0.0608547 0.00750622 0.0025 0.5
0.0608547 0.00750622 -0.0025 0.5
0.0608839 0.00800457 0.0014434 0.5
0.0608839 0.00800457 -0.0014434 0.5
0.0613966 0.0002775 -0.0025 0.5
0.0613966 0.0002775 0.0025 0.5
0.0608839 0.00800457 0.0025 0.5
0.0608839 0.00800457 -0.0025 0.5
0.0608931 0.008325 -2.26979e-19 0.5
0.0608177 0.00888 -0.0025 0.5
0.0608177 0.00888 0.0025 0.5
0.0609034 0.00866494 -0.00153127 0.5
0.0609034 0.00866494 0.00153127 0.5
0.0609034 0.00866494 0.0025 0.5
0.0609034 0.00866494 -0.0025 0.5
0.0609275 0.00907099 0.00163968 0.5
0.0609275 0.00907099 -0.00163968 0.5
0.0609275 0.00907099 0.0025 0.5
0.0609275 0.00907099 -0.0025 0.5
0.060938 0.009435 -6.46354e-20 0.5
0.0616744 0.0002775 0 0.5
0.0608685 0.00999 0.0025 0.5
0.0608685 0.00999 -0.0025 0.5
0.060949 0.00982046 -0.00173632 0.5
0.060949 0.00982046 0.00173632 0.5
0.060949 0.00982046 0.0025 0.5
0.060949 0.00982046 -0.0025 0.5
0.0609668 0.0101417 0.00181647 0.5
0.0609668 0.0101417 -0.00181647 0.5
0.0609668 0.0101417 0.0025 0.5
0.0609668 0.0101417 -0.0025 0.5
0.0609777 0.010545 -1.2611e-20 0.5
0.0609479 0.0111 0.0025 0.5
0.0609479 0.0111 -0.0025 0.5
0.0619522 0.0002775 -0.0025 0.5
0.0619522 0.0002775 0.0025 0.5
0.0610081 0.0109895 -0.00200226 0.5
0.0610081 0.0109895 0.00200226 0.5
0.0610081 0.0109895 0.0025 0.5
0.0610081 0.0109895 -0.0025 0.5
0.0610179 0.0112007 0.00204627 0.5
0.0610179 0.0112007 -0.00204627 0.5
0.0610179 0.0112007 0.0025 0.5
0.0610179 0.0112007 -0.0025 0.5
0.0610505 0.011655 2.01968e-19 0.5
0.06223 0.000555 -0.0025 0.5
0.06223 0.000555 0.0025 0.5
0.0610775 0.01221 0.0025 0.5
0.0610775 0.01221 -0.0025 0.5
0.0610928 0.0121841 -0.00238313 0.5
0.0610928 0.0121841 0.00238313 0.5
0.0610928 0.0121841 0.0025 0.5
0.0610928 0.0121841 -0.0025 0.5
0.061095 0.0122337 0.00239304 0.5
0.061095 0.0122337 -0.00239304 0.5
0.061095 0.0122337 0.0025 0.5
0.061095 0.0122337 -0.0025 0.5
0.0611187 0.0125075 -0.0025 0.5
0.0611188 0.0125075 0.0025 0.5
0.0611408 0.012765 -1.51565e-19 0.5
0.0625078 0.0002775 0.0025 0.5
0.0625078 0.0002775 -0.0025 0.5
0.0611836 0.0132552 -0.00220809 0.5
0.0611836 0.0132552 0.00220809 0.5
0.0611836 0.0132552 -0.0025 0.5
0.0611836 0.0132552 0.0025 0.5
0.0612041 0.0134052 -0.002116 0.5
0.0612041 0.0134052 0.002116 0.5
0.0612041 0.0134052 0.0025 0.5
0.0612041 0.0134052 -0.0025 0.5
0.0612314 0.01332 0.0025 0.5
0.0612314 0.01332 -0.0025 0.5
0.0627856 0.0002775 3.76374e-21 0.5
0.061249 0.013875 -6.28471e-19 0.5
0.0612869 0.0142621 -0.00174359 0.5
0.0612869 0.0142621 0.00174359 0.5
0.0612869 0.0142621 0.0025 0.5
0.0612869 0.0142621 -0.0025 0.5
0.0613497 0.0146607 -0.00146077 0.5
0.0613497 0.0146607 0.00146077 0.5
0.0613791 0.01443 -0.0025 0.5
0.0613791 0.01443 0.0025 0.5
0.0630634 0.0002775 -0.0025 0.5
0.0630634 0.0002775 0.0025 0.5
0.0613497 0.0146607 0.0025 0.5
0.0613497 0.0146607 -0.0025 0.5
0.0614047 0.0151581 4.75645e-19 0.5
0.0614145 0.0152446 0.0025 0.5
0.0614145 0.0152446 -0.0025 0.5
0.0633413 0.000555 -0.0025 0.5
0.0633413 0.000555 0.0025 0.5
0.0615223 0.01554 -0.0025 0.5
0.0615223 0.01554 0.0025 0.5
0.0615519 0.0159727 0.0025 0.5
0.0615519 0.0159727 -0.0025 0.5
0.0615755 0.0161334 7.12931e-22 0.5
0.0636191 0.0002775 0.0025 0.5
0.0636191 0.0002775 -0.0025 0.5
0.06158 0.0161893 0.0025 0.5
0.06158 0.0161893 -0.0025 0.5
0.0638969 0.0002775 -5.95927e-22 0.5
0.0616615 0.01665 0.0025 0.5
0.0616615 0.01665 -0.0025 0.5
0.0617926 0.0172126 0 0.5
0.0617815 0.0170979 0.0025 0.5
0.0617815 0.0170979 -0.0025 0.5
0.0641747 0.0002775 0.0025 0.5
0.0641747 0.0002775 -0.0025 0.5
0.0618044 0.0173349 0.0025 0.5
0.0618044 0.0173349 -0.0025 0.5
0.0617941 0.01776 0.0025 0.5
0.0617941 0.01776 -0.0025 0.5
0.0644525 0.000555 -0.0025 0.5
0.0644525 0.000555 0.0025 0.5
0.0619388 0.0181436 -9.78346e-20 0.5
0.0619318 0.0180578 0.0025 0.5
0.0619318 0.0180578 -0.0025 0.5
0.0619765 0.0186168 -0.00135957 0.5
0.0619765 0.0186168 0.00135957 0.5
0.0619765 0.0186168 0.0025 0.5
0.0619765 0.0186168 -0.0025 0.5
0.0619177 0.01887 0.0025 0.5
0.0619177 0.01887 -0.0025 0.5
0.0647303 0.0002775 0.0025 0.5
0.0647303 0.0002775 -0.0025 0.5
0.0620413 0.0190585 -0.00165097 0.5
0.0620413 0.0190585 0.00165097 0.5
0.0620413 0.0190585 -0.0025 0.5
0.0620413 0.0190585 0.0025 0.5
0.0650081 0.0002775 0 0.5
0.0620663 0.019425 -5.34132e-19 0.5
0.0620915 0.0198416 -0.00187675 0.5
0.0620915 0.0198416 0.00187675 0.5
0.0620289 0.01998 0.0025 0.5
0.0620289 0.01998 -0.0025 0.5
0.0620915 0.0198416 0.0025 0.5
0.0620915 0.0198416 -0.0025 0.5
0.0621198 0.0200901 -0.002004 0.5
0.0621198 0.0200901 0.002004 0.5
0.0652859 0.0002775 0.0025 0.5
0.0652859 0.0002775 -0.0025 0.5
0.0621198 0.0200901 0.0025 0.5
0.0621198 0.0200901 -0.0025 0.5
0.0621437 0.020535 2.51602e-19 0.5
0.0655638 0.000555 -0.0025 0.5
0.0655638 0.000555 0.0025 0.5
0.0621857 0.02109 0.0025 0.5
0.0621857 0.02109 -0.0025 0.5
0.062203 0.0210631 -0.00237862 0.5
0.062203 0.0210631 0.00237862 0.5
0.062203 0.0210631 0.0025 0.5
0.062203 0.0210631 -0.0025 0.5
0.062207 0.021113 0.00239645 0.5
0.062207 0.021113 -0.00239645 0.5
0.062207 0.021113 0.0025 0.5
0.062207 0.021113 -0.0025 0.5
0.06223 0.0212946 -0.0025 0.5
0.06223 0.0212946 0.0025 0.5
0.0658416 0.0002775 0.0025 0.5
0.0658416 0.0002775 -0.0025 0.5
0.0622713 0.021645 -2.22606e-19 0.5
0.0661194 0.0002775 -1.81913e-21 0.5
0.0623309 0.0220992 -0.00204591 0.5
0.0623309 0.0220992 0.00204591 0.5
0.0623309 0.0220992 0.0025 0.5
0.0623309 0.0220992 -0.0025 0.5
0.0624227 0.0222 0.0025 0.5
0.0624227 0.0222 -0.0025 0.5
0.062391 0.0223608 -0.00177551 0.5
0.062391 0.0223608 0.00177551 0.5
0.062391 0.0223608 0.0025 0.5
0.062391 0.0223608 -0.0025 0.5
0.0663972 0.0002775 0.0025 0.5
0.0663972 0.0002775 -0.0025 0.5
0.0624526 0.022755 -2.48568e-19 0.5
0.0624909 0.0230494 -0.00132597 0.5
0.0624909 0.0230494 0.00132597 0.5
0.0624909 0.0230494 0.0025 0.5
0.0624909 0.0230494 -0.0025 0.5
0.066675 0.000555 -0.0025 0.5
0.066675 0.000555 0.0025 0.5
0.0626348 0.02331 0.0025 0.5
0.0626348 0.02331 -0.0025 0.5
0.0669528 0.0002775 0.0025 0.5
0.0669528 0.0002775 -0.0025 0.5
0.0626678 0.0237473 0.0025 0.5
0.0626678 0.0237473 -0.0025 0.5
0.0626932 0.0238926 -8.75854e-19 0.5
0.062699 0.0239515 0.0025 0.5
0.062699 0.0239515 -0.0025 0.5
0.0672306 0.0002775 9.10876e-20 0.5
0.0628117 0.02442 0.0025 0.5
0.0628117 0.02442 -0.0025 0.5
0.0675084 0.0002775 0.0025 0.5
0.0675084 0.0002775 -0.0025 0.5
0.0629477 0.0248131 0.0025 0.5
0.0629477 0.0248131 -0.0025 0.5
0.0629686 0.0249893 2.15122e-18 0.5
0.0677863 0.000555 -0.0025 0.5
0.0677863 0.000555 0.0025 0.5
0.0629907 0.0251798 0.0025 0.5
0.0629907 0.0251798 -0.0025 0.5
0.0629695 0.02553 0.0025 0.5
0.0629695 0.02553 -0.0025 0.5
0.0680641 0.0002775 0.0025 0.5
0.0680641 0.0002775 -0.0025 0.5
0.063109 0.025762 -0.00145517 0.5
0.063109 0.025762 0.00145517 0.5
0.063109 0.025762 -0.0025 0.5
0.063109 0.025762 0.0025 0.5
0.0631388 0.026085 -1.37426e-18 0.5
0.0683419 0.0002775 1.14121e-19 0.5
0.0631702 0.0264691 -0.00173039 0.5
0.0631702 0.0264691 0.00173039 0.5
0.0631702 0.0264691 0.0025 0.5
0.0631702 0.0264691 -0.0025 0.5
0.0631109 0.02664 0.0025 0.5
0.0631109 0.02664 -0.0025 0.5
0.0686197 0.0002775 0.0025 0.5
0.0686197 0.0002775 -0.0025 0.5
0.063215 0.0267661 0.00193207 0.5
0.063215 0.0267661 -0.00193207 0.5
0.063215 0.0267661 0.0025 0.5
0.063215 0.0267661 -0.0025 0.5
0.0632451 0.027195 -2.56119e-20 0.5
0.0688975 0.000555 -0.0025 0.5
0.0688975 0.000555 0.0025 0.5
0.0632261 0.02775 -0.0025 0.5
0.0632261 0.02775 0.0025 0.5
0.0632701 0.0276789 -0.00217968 0.5
0.0632701 0.0276789 0.00217968 0.5
0.0632701 0.0276789 0.0025 0.5
0.0632701 0.0276789 -0.0025 0.5
0.0632828 0.0278084 0.00223679 0.5
0.0632828 0.0278084 -0.00223679 0.5
0.0632828 0.0278084 0.0025 0.5
0.0632828 0.0278084 -0.0025 0.5
0.0691753 0.0002775 0.0025 0.5
0.0691753 0.0002775 -0.0025 0.5
0.0633059 0.028305 2.32628e-20 0.5
0.0694531 0.0002775 9.36031e-20 0.5
0.0633413 0.0285729 -0.0025 0.5
0.0633413 0.0285729 0.0025 0.5
0.0633606 0.0288406 -0.00241279 0.5
0.0633606 0.0288406 0.00241279 0.5
0.0633606 0.0288406 0.0025 0.5
0.0633606 0.0288406 -0.0025 0.5
0.0633684 0.0288871 -0.00237793 0.5
0.0633684 0.0288871 0.00237793 0.5
0.0633684 0.0288871 0.0025 0.5
0.0633684 0.0288871 -0.0025 0.5
0.063383 0.02886 0.0025 0.5
0.063383 0.02886 -0.0025 0.5
0.0697309 0.0002775 0.0025 0.5
0.0697309 0.0002775 -0.0025 0.5
0.063429 0.029415 -7.20822e-19 0.5
0.0700088 0.000555 -0.0025 0.5
0.0700088 0.000555 0.0025 0.5
0.0634767 0.0298347 -0.0018905 0.5
0.0634767 0.0298347 0.0018905 0.5
0.0634767 0.0298347 0.0025 0.5
0.0634767 0.0298347 -0.0025 0.5
0.0702866 0.0002775 0.0025 0.5
0.0702866 0.0002775 -0.0025 0.5
0.0635957 0.02997 0.0025 0.5
0.0635957 0.02997 -0.0025 0.5
0.0635584 0.0301869 -0.00152289 0.5
0.0635584 0.0301869 0.00152289 0.5
0.0635584 0.0301869 0.0025 0.5
0.0635584 0.0301869 -0.0025 0.5
0.0705644 0.0002775 2.66209e-19 0.5
0.0636256 0.0306992 7.67891e-19 0.5
0.0636353 0.0307862 0.0025 0.5
0.0636353 0.0307862 -0.0025 0.5
0.0708422 0.0002775 0.0025 0.5
0.0708422 0.0002775 -0.0025 0.5
0.0637836 0.03108 0.0025 0.5
0.0637836 0.03108 -0.0025 0.5
0.07112 0.000555 -0.0025 0.5
0.07112 0.000555 0.0025 0.5
0.063832 0.0315702 0.0025 0.5
0.063832 0.0315702 -0.0025 0.5
0.0638461 0.0316463 -6.48183e-20 0.5
0.0638501 0.0316817 0.0025 0.5
0.0638501 0.0316817 -0.0025 0.5
0.0713978 0.0002775 0.0025 0.5
0.0713978 0.0002775 -0.0025 0.5
0.0639767 0.03219 0.0025 0.5
0.0639767 0.03219 -0.0025 0.5
0.0716756 0.0002775 9.36031e-20 0.5
0.0641428 0.0324993 -0.0025 0.5
0.0641428 0.0324993 0.0025 0.5
0.0641549 0.0325812 2.24817e-21 0.5
0.0719534 0.0002775 0.0025 0.5
0.0719534 0.0002775 -0.0025 0.5
0.0642055 0.0330533 0.00138853 0.5
0.0642055 0.0330533 -0.00138853 0.5
0.0642055 0.0330533 -0.0025 0.5
0.0642055 0.0330533 0.0025 0.5
0.0722313 0.000555 -0.0025 0.5
0.0722313 0.000555 0.0025 0.5
0.06415 0.0333 0.0025 0.5
0.06415 0.0333 -0.0025 0.5
0.0642731 0.0334792 0.00169294 0.5
0.0642731 0.0334792 -0.00169294 0.5
0.0642731 0.0334792 0.0025 0.5
0.0642731 0.0334792 -0.0025 0.5
0.0725091 0.0002775 0.0025 0.5
0.0725091 0.0002775 -0.0025 0.5
0.0643008 0.033855 -3.16241e-20 0.5
0.0727869 0.0002775 1.145e-19 0.5
0.0643167 0.0342743 -0.00188895 0.5
0.0643167 0.0342743 0.00188895 0.5
0.0643167 0.0342743 0.0025 0.5
0.0643167 0.0342743 -0.0025 0.5
0.0642472 0.03441 0.0025 0.5
0.0642472 0.03441 -0.0025 0.5
0.0643352 0.0345272 -0.00197211 0.5
0.0643352 0.0345272 0.00197211 0.5
0.0643352 0.0345272 0.0025 0.5
0.0643352 0.0345272 -0.0025 0.5
0.0730647 0.0002775 0.0025 0.5
0.0730647 0.0002775 -0.0025 0.5
0.0643506 0.034965 4.68397e-20 0.5
0.0733425 0.000555 -0.0025 0.5
0.0733425 0.000555 0.0025 0.5
0.0643705 0.0354381 -0.00213093 0.5
0.0643705 0.0354381 0.00213093 0.5
0.0643197 0.03552 0.0025 0.5
0.0643197 0.03552 -0.0025 0.5
0.0643705 0.0354381 0.0025 0.5
0.0643705 0.0354381 -0.0025 0.5
0.0643827 0.0355897 0.00218592 0.5
0.0643827 0.0355897 -0.00218592 0.5
0.0643827 0.0355897 0.0025 0.5
0.0643827 0.0355897 -0.0025 0.5
0.0736203 0.0002775 0.0025 0.5
0.0736203 0.0002775 -0.0025 0.5
0.0644015 0.036075 -5.29818e-19 0.5
0.0738981 0.0002775 1.12679e-19 0.5
0.0643894 0.03663 0.0025 0.5
0.0643894 0.03663 -0.0025 0.5
0.064417 0.0365946 -0.00234036 0.5
0.064417 0.0365946 0.00234036 0.5
0.064417 0.0365946 0.0025 0.5
0.064417 0.0365946 -0.0025 0.5
0.0644209 0.0366616 0.00235786 0.5
0.0644209 0.0366616 -0.00235786 0.5
0.0644209 0.0366616 0.0025 0.5
0.0644209 0.0366616 -0.0025 0.5
0.0741759 0.0002775 0.0025 0.5
0.0741759 0.0002775 -0.0025 0.5
0.0644357 0.037185 6.75675e-19 0.5
0.0744538 0.000555 -0.0025 0.5
0.0744538 0.000555 0.0025 0.5
0.0644525 0.0377327 0.0025 0.5
0.0644525 0.0377327 -0.0025 0.5
0.0644527 0.0377398 -0.00249907 0.5
0.0644527 0.0377398 0.00249907 0.5
0.0644527 0.0377398 -0.0025 0.5
0.0644527 0.0377398 0.0025 0.5
0.0644527 0.0377402 0.002499 0.5
0.0644527 0.0377402 -0.002499 0.5
0.0644527 0.0377402 0.0025 0.5
0.0644527 0.0377402 -0.0025 0.5
0.0644529 0.03774 0.0025 0.5
0.0644529 0.03774 -0.0025 0.5
0.0747316 0.0002775 0.0025 0.5
0.0747316 0.0002775 -0.0025 0.5
0.0644698 0.038295 1.122e-20 0.5
0.0750094 0.0002775 1.14375e-19 0.5
0.0645017 0.0388009 -0.00227862 0.5
0.0645017 0.0388009 0.00227862 0.5
0.0645017 0.0388009 0.0025 0.5
0.0645017 0.0388009 -0.0025 0.5
0.0752872 0.0002775 0.0025 0.5
0.0752872 0.0002775 -0.0025 0.5
0.0645166 0.038914 0.00221156 0.5
0.0645166 0.038914 -0.00221156 0.5
0.0645536 0.03885 0.0025 0.5
0.0645536 0.03885 -0.0025 0.5
0.0645166 0.038914 0.0025 0.5
0.0645166 0.038914 -0.0025 0.5
0.075565 0.000555 -0.0025 0.5
0.075565 0.000555 0.0025 0.5
0.0645518 0.039405 3.65703e-20 0.5
0.0758428 0.0002775 0.0025 0.5
0.0758428 0.0002775 -0.0025 0.5
0.0645732 0.0398394 -0.00195683 0.5
0.0645732 0.0398394 0.00195683 0.5
0.0645732 0.0398394 0.0025 0.5
0.0645732 0.0398394 -0.0025 0.5
0.0646674 0.03996 0.0025 0.5
0.0646674 0.03996 -0.0025 0.5
0.0646011 0.0401085 -0.00183122 0.5
0.0646011 0.0401085 0.00183122 0.5
0.0646011 0.0401085 0.0025 0.5
0.0646011 0.0401085 -0.0025 0.5
0.0761206 0.0002775 1.14623e-19 0.5
0.0646234 0.040515 -3.29128e-20 0.5
0.0763984 0.0002775 0.0025 0.5
0.0763984 0.0002775 -0.0025 0.5
0.0646384 0.0408843 -0.00166367 0.5
0.0646384 0.0408843 0.00166367 0.5
0.0646384 0.0408843 0.0025 0.5
0.0646384 0.0408843 -0.0025 0.5
0.0647483 0.04107 0.0025 0.5
0.0647483 0.04107 -0.0025 0.5
0.0766763 0.000555 -0.0025 0.5
0.0766763 0.000555 0.0025 0.5
0.0646727 0.0412899 -0.00150924 0.5
0.0646727 0.0412899 0.00150924 0.5
0.0646727 0.0412899 0.0025 0.5
0.0646727 0.0412899 -0.0025 0.5
0.0646875 0.041625 3.53477e-20 0.5
0.0769541 0.0002775 0.0025 0.5
0.0769541 0.0002775 -0.0025 0.5
0.0646976 0.0419352 -0.00139726 0.5
0.0646976 0.0419352 0.00139726 0.5
0.0646976 0.0419352 0.0025 0.5
0.0646976 0.0419352 -0.0025 0.5
0.0772319 0.0002775 1.08196e-19 0.5
0.0648082 0.04218 0.0025 0.5
0.0648082 0.04218 -0.0025 0.5
0.0647329 0.04246 0.0025 0.5
0.0647329 0.04246 -0.0025 0.5
0.0775097 0.0002775 0.0025 0.5
0.0775097 0.0002775 -0.0025 0.5
0.0647413 0.0427297 0 0.5
0.0647487 0.0429941 0.0025 0.5
0.0647487 0.0429941 -0.0025 0.5
0.0777875 0.000555 -0.0025 0.5
0.0777875 0.000555 0.0025 0.5
0.0648512 0.04329 0.0025 0.5
0.0648512 0.04329 -0.0025 0.5
0.0780653 0.0002775 0.0025 0.5
0.0780653 0.0002775 -0.0025 0.5
0.0647796 0.0436167 0.0025 0.5
0.0647796 0.0436167 -0.0025 0.5
0.0647846 0.0438419 -1.6263e-19 0.5
0.0783431 0.0002775 8.26565e-20 0.5
0.0647889 0.044064 0.0025 0.5
0.0647889 0.044064 -0.0025 0.5
0.0648798 0.0444 0.0025 0.5
0.0648798 0.0444 -0.0025 0.5
0.0786209 0.0002775 0.0025 0.5
0.0786209 0.0002775 -0.0025 0.5
0.0648112 0.0447583 0.0025 0.5
0.0648112 0.0447583 -0.0025 0.5
0.0648139 0.0449534 -1.87208e-18 0.5
0.0788988 0.000555 -0.0025 0.5
0.0788988 0.000555 0.0025 0.5
0.064816 0.0451469 0.0025 0.5
0.064816 0.0451469 -0.0025 0.5
0.0791766 0.0002775 0.0025 0.5
0.0791766 0.0002775 -0.0025 0.5
0.0648966 0.04551 0.0025 0.5
0.0648966 0.04551 -0.0025 0.5
0.0794544 0.0002775 9.54222e-20 0.5
0.064829 0.045886 0.0025 0.5
0.064829 0.045886 -0.0025 0.5
0.0648302 0.0460643 -8.7464e-20 0.5
0.0648311 0.0462418 0.0025 0.5
0.0648311 0.0462418 -0.0025 0.5
0.0797322 0.0002775 0.0025 0.5
0.0797322 0.0002775 -0.0025 0.5
0.0649044 0.04662 0.0025 0.5
0.0649044 0.04662 -0.0025 0.5
0.08001 0.000555 -0.0025 0.5
0.08001 0.000555 0.0025 0.5
0.0648356 0.0470027 0.0025 0.5
0.0648356 0.0470027 -0.0025 0.5
0.0648356 0.0471752 2.14565e-18 0.5
0.0648351 0.0473478 0.0025 0.5
0.0648351 0.0473478 -0.0025 0.5
0.0802878 0.0002775 0.0025 0.5
0.0802878 0.0002775 -0.0025 0.5
0.0805656 0.0002775 1.15842e-19 0.5
0.0649024 0.04773 -0.0025 0.5
0.0649024 0.04773 0.0025 0.5
0.0648259 0.048103 0.0025 0.5
0.0648259 0.048103 -0.0025 0.5
0.0648242 0.0482863 -2.55277e-20 0.5
0.0808434 0.0002775 0.0025 0.5
0.0808434 0.0002775 -0.0025 0.5
0.0648218 0.0484711 0.0025 0.5
0.0648218 0.0484711 -0.0025 0.5
0.0811213 0.000555 -0.0025 0.5
0.0811213 0.000555 0.0025 0.5
0.0648879 0.04884 -0.0025 0.5
0.0648879 0.04884 0.0025 0.5
0.0647996 0.0491868 -0.0025 0.5
0.0647996 0.0491868 0.0025 0.5
0.0813991 0.0002775 0.0025 0.5
0.0813991 0.0002775 -0.0025 0.5
0.0647958 0.0493978 1.80497e-19 0.5
0.0647913 0.0496116 0.0025 0.5
0.0647913 0.0496116 -0.0025 0.5
0.0816769 0.0002775 9.5745e-20 0.5
0.0648611 0.04995 -0.0025 0.5
0.0648611 0.04995 0.0025 0.5
0.0819547 0.0002775 0.0025 0.5
0.0819547 0.0002775 -0.0025 0.5
0.0647613 0.0502585 0.0025 0.5
0.0647613 0.0502585 -0.0025 0.5
0.0647549 0.0505096 -1.66736e-19 0.5
0.0822325 0.000555 -0.0025 0.5
0.0822325 0.000555 0.0025 0.5
0.0647476 0.0507652 0.0025 0.5
0.0647476 0.0507652 -0.0025 0.5
0.0825103 0.0002775 0.0025 0.5
0.0825103 0.0002775 -0.0025 0.5
0.0648224 0.05106 0.0025 0.5
0.0648224 0.05106 -0.0025 0.5
0.064714 0.0513212 -0.0013235 0.5
0.064714 0.0513212 0.0013235 0.5
0.064714 0.0513212 0.0025 0.5
0.064714 0.0513212 -0.0025 0.5
0.0647053 0.051615 -1.25165e-18 0.5
0.0827881 0.0002775 8.32524e-20 0.5
0.0646936 0.0519292 -0.00141516 0.5
0.0646936 0.0519292 0.00141516 0.5
0.0646936 0.0519292 0.0025 0.5
0.0646936 0.0519292 -0.0025 0.5
0.0830659 0.0002775 0.0025 0.5
0.0830659 0.0002775 -0.0025 0.5
0.0647715 0.05217 0.0025 0.5
0.0647715 0.05217 -0.0025 0.5
0.0646612 0.0523785 -0.00156082 0.5
0.0646612 0.0523785 0.00156082 0.5
0.0646612 0.0523785 0.0025 0.5
0.0646612 0.0523785 -0.0025 0.5
0.0833437 0.000555 -0.0025 0.5
0.0833437 0.000555 0.0025 0.5
0.0646492 0.052725 3.15263e-18 0.5
0.0836216 0.0002775 0.0025 0.5
0.0836216 0.0002775 -0.0025 0.5
0.0646335 0.0530992 -0.00168564 0.5
0.0646335 0.0530992 0.00168564 0.5
0.0646335 0.0530992 0.0025 0.5
0.0646335 0.0530992 -0.0025 0.5
0.0647086 0.05328 -0.0025 0.5
0.0647086 0.05328 0.0025 0.5
0.0646066 0.0534339 -0.00180686 0.5
0.0646066 0.0534339 0.00180686 0.5
0.0646066 0.0534339 -0.0025 0.5
0.0646066 0.0534339 0.0025 0.5
0.0838994 0.0002775 3.228e-22 0.5
0.064591 0.053835 -4.38291e-18 0.5
0.0841772 0.0002775 0.0025 0.5
0.0841772 0.0002775 -0.0025 0.5
0.0645712 0.0542714 0.00196589 0.5
0.0645712 0.0542714 -0.00196589 0.5
0.0645712 0.0542714 0.0025 0.5
0.0645712 0.0542714 -0.0025 0.5
0.084455 0.000555 -0.0025 0.5
0.084455 0.000555 0.0025 0.5
0.0645522 0.0544896 -0.00205122 0.5
0.0645522 0.0544896 0.00205122 0.5
0.0646339 0.05439 0.0025 0.5
0.0646339 0.05439 -0.0025 0.5
0.0645522 0.0544896 -0.0025 0.5
0.0645522 0.0544896 0.0025 0.5
0.0645333 0.054945 3.27209e-19 0.5
0.0847328 0.0002775 0.0025 0.5
0.0847328 0.0002775 -0.0025 0.5
0.0850106 0.0002775 0 0.5
0.0645071 0.0554454 -0.00225417 0.5
0.0645071 0.0554454 0.00225417 0.5
0.0645071 0.0554454 -0.0025 0.5
0.0645071 0.0554454 0.0025 0.5
0.0644976 0.055545 0.00229727 0.5
0.0644976 0.055545 -0.00229727 0.5
0.0644976 0.055545 0.0025 0.5
0.0644976 0.055545 -0.0025 0.5
0.0645431 0.0555 0.0025 0.5
0.0645431 0.0555 -0.0025 0.5
0.0852884 0.0002775 0.0025 0.5
0.0852884 0.0002775 -0.0025 0.5
0.0644733 0.056055 1.25219e-18 0.5
0.0855663 0.000555 -0.0025 0.5
0.0855663 0.000555 0.0025 0.5
0.0644574 0.0566051 0.00247796 0.5
0.0644574 0.0566051 -0.00247796 0.5
0.0644574 0.0566051 0.0025 0.5
0.0644574 0.0566051 -0.0025 0.5
0.064457 0.0566145 0.00247966 0.5
0.064457 0.0566145 -0.00247966 0.5
0.064457 0.0566145 0.0025 0.5
0.064457 0.0566145 -0.0025 0.5
0.0644617 0.05661 -0.0025 0.5
0.0644617 0.05661 0.0025 0.5
0.0858441 0.0002775 0.0025 0.5
0.0858441 0.0002775 -0.0025 0.5
0.0644525 0.0568268 -0.0025 0.5
0.0644525 0.0568268 0.0025 0.5
0.0861219 0.0002775 0 0.5
0.0644415 0.057165 -2.83463e-20 0.5
0.0863997 0.0002775 0.0025 0.5
0.0863997 0.0002775 -0.0025 0.5
0.0644336 0.0577012 -0.0024151 0.5
0.0644336 0.0577012 0.0024151 0.5
0.064415 0.05772 0.0025 0.5
0.064415 0.05772 -0.0025 0.5
0.0644336 0.0577012 0.0025 0.5
0.0644336 0.0577012 -0.0025 0.5
0.0644325 0.05774 -0.00240989 0.5
0.0644325 0.05774 0.00240989 0.5
0.0644325 0.05774 0.0025 0.5
0.0644325 0.05774 -0.0025 0.5
0.0866775 0.000555 -0.0025 0.5
0.0866775 0.000555 0.0025 0.5
0.0644244 0.058275 2.67131e-18 0.5
0.0869553 0.0002775 0.0025 0.5
0.0869553 0.0002775 -0.0025 0.5
0.0872331 0.0002775 0 0.5
0.0644151 0.0587926 -0.0023316 0.5
0.0644151 0.0587926 0.0023316 0.5
0.06438 0.05883 -0.0025 0.5
0.06438 0.05883 0.0025 0.5
0.0644151 0.0587926 -0.0025 0.5
0.0644151 0.0587926 0.0025 0.5
0.0644122 0.0588702 -0.00231881 0.5
0.0644122 0.0588702 0.00231881 0.5
0.0644122 0.0588702 -0.0025 0.5
0.0644122 0.0588702 0.0025 0.5
0.0875109 0.0002775 0.0025 0.5
0.0875109 0.0002775 -0.0025 0.5
0.0644026 0.059385 -5.33605e-18 0.5
0.0877888 0.000555 -0.0025 0.5
0.0877888 0.000555 0.0025 0.5
0.0643935 0.0598811 0.00223461 0.5
0.0643935 0.0598811 -0.00223461 0.5
0.0643935 0.0598811 0.0025 0.5
0.0643935 0.0598811 -0.0025 0.5
0.0643423 0.05994 0.0025 0.5
0.0643423 0.05994 -0.0025 0.5
0.0643889 0.0600035 0.002214 0.5
0.0643889 0.0600035 -0.002214 0.5
0.0643889 0.0600035 0.0025 0.5
0.0643889 0.0600035 -0.0025 0.5
0.0880666 0.0002775 -0.00125 0.5
0.0880666 0.0002775 0.00125 0.5
0.0880666 0.0002775 0.0025 0.5
0.0880666 0.0002775 -0.0025 0.5
0.0643796 0.060495 2.4184e-18 0.5
0.0883444 0.0002775 0 0.5
0.0883444 0.00111 0.0025 0.5
0.0883444 0.00111 -0.0025 0.5
0.0883444 0.00222 0.0025 0.5
0.0883444 0.00222 -0.0025 0.5
0.0883444 0.00333 0.0025 0.5
0.0883444 0.00333 -0.0025 0.5
0.0883444 0.00444 0.0025 0.5
0.0883444 0.00444 -0.0025 0.5
0.0883444 0.00555 0.0025 0.5
0.0883444 0.00555 -0.0025 0.5
0.0886222 0.000555 0 0.5
0.0883444 0.00666 0.0025 0.5
0.0883444 0.00666 -0.0025 0.5
0.0886222 0.0002775 -0.00125 0.5
0.0886222 0.0002775 0.00125 0.5
0.0886222 0.0008325 0.00125 0.5
0.0886222 0.0008325 -0.00125 0.5
0.0886222 0.001665 0 0.5
0.0886222 0.0002775 0.0025 0.5
0.0886222 0.0002775 -0.0025 0.5
0.0886222 0.0008325 0.0025 0.5
0.0886222 0.0008325 -0.0025 0.5
0.0886222 0.002775 0 0.5
0.0886222 0.0013875 0.0025 0.5
0.0886222 0.0013875 -0.0025 0.5
0.0886222 0.0019425 0.0025 0.5
0.0886222 0.0019425 -0.0025 0.5
0.0643713 0.0609689 -0.00213484 0.5
0.0643713 0.0609689 0.00213484 0.5
0.0886222 0.0024975 0.0025 0.5
0.0886222 0.0024975 -0.0025 0.5
0.0643713 0.0609689 0.0025 0.5
0.0643713 0.0609689 -0.0025 0.5
0.0643065 0.06105 0.0025 0.5
0.0643065 0.06105 -0.0025 0.5
0.0886222 0.003885 0 0.5
0.0886222 0.0030525 0.0025 0.5
0.0886222 0.0030525 -0.0025 0.5
0.0883444 0.00777 0.0025 0.5
0.0883444 0.00777 -0.0025 0.5
0.0886222 0.0036075 0.0025 0.5
0.0886222 0.0036075 -0.0025 0.5
0.0886222 0.0041625 0.0025 0.5
0.0886222 0.0041625 -0.0025 0.5
0.0886222 0.004995 -1.81603e-19 0.5
0.0886222 0.0047175 0.0025 0.5
0.0886222 0.0047175 -0.0025 0.5
0.0643654 0.061137 0.00210814 0.5
0.0643654 0.061137 -0.00210814 0.5
0.0643654 0.061137 0.0025 0.5
0.0643654 0.061137 -0.0025 0.5
0.0886222 0.0052725 0.0025 0.5
0.0886222 0.0052725 -0.0025 0.5
0.0883444 0.00888 0.0025 0.5
0.0883444 0.00888 -0.0025 0.5
0.0886222 0.006105 -4.31797e-21 0.5
0.0886222 0.0058275 0.0025 0.5
0.0886222 0.0058275 -0.0025 0.5
0.0886222 0.0063825 0.0025 0.5
0.0886222 0.0063825 -0.0025 0.5
0.0886222 0.007215 3.76366e-21 0.5
0.0886222 0.0069375 -0.0025 0.5
0.0886222 0.0069375 0.0025 0.5
0.0883444 0.00999 0.0025 0.5
0.0883444 0.00999 -0.0025 0.5
0.0886222 0.0074925 -0.0025 0.5
0.0886222 0.0074925 0.0025 0.5
0.0886222 0.008325 1.10296e-21 0.5
0.0886222 0.0080475 -0.0025 0.5
0.0886222 0.0080475 0.0025 0.5
0.0886222 0.0086025 -0.0025 0.5
0.0886222 0.0086025 0.0025 0.5
0.0883444 0.0111 0.0025 0.5
0.0883444 0.0111 -0.0025 0.5
0.064357 0.061605 9.53774e-21 0.5
0.0886222 0.009435 1.92878e-21 0.5
0.0886222 0.0091575 0.0025 0.5
0.0886222 0.0091575 -0.0025 0.5
0.0886222 0.0097125 0.0025 0.5
0.0886222 0.0097125 -0.0025 0.5
0.0883444 0.01221 0.0025 0.5
0.0883444 0.01221 -0.0025 0.5
0.0886222 0.010545 3.88923e-21 0.5
0.0886222 0.0102675 0.0025 0.5
0.0886222 0.0102675 -0.0025 0.5
0.0886222 0.0108225 0.0025 0.5
0.0886222 0.0108225 -0.0025 0.5
0.0883444 0.01332 0.0025 0.5
0.0883444 0.01332 -0.0025 0.5
0.0886222 0.0113775 0.0025 0.5
0.0886222 0.0113775 -0.0025 0.5
0.0886222 0.011655 2.78619e-21 0.5
0.0643503 0.0620579 -0.00204013 0.5
0.0643503 0.0620579 0.00204013 0.5
0.0643503 0.0620579 0.0025 0.5
0.0643503 0.0620579 -0.0025 0.5
0.0642755 0.06216 0.0025 0.5
0.0642755 0.06216 -0.0025 0.5
0.0886222 0.0119325 0.0025 0.5
0.0886222 0.0119325 -0.0025 0.5
0.0886222 0.0124875 -0.0025 0.5
0.0886222 0.0124875 0.0025 0.5
0.0886222 0.012765 1.81655e-19 0.5
0.0883444 0.01443 0.0025 0.5
0.0883444 0.01443 -0.0025 0.5
0.064344 0.0622684 0.00201167 0.5
0.064344 0.0622684 -0.00201167 0.5
0.064344 0.0622684 0.0025 0.5
0.064344 0.0622684 -0.0025 0.5
0.0886222 0.0130425 -0.0025 0.5
0.0886222 0.0130425 0.0025 0.5
0.0886222 0.0135975 0.0025 0.5
0.0886222 0.0135975 -0.0025 0.5
0.0886222 0.013875 0 0.5
0.0883444 0.01554 0.0025 0.5
0.0883444 0.01554 -0.0025 0.5
0.0886222 0.0141525 0.0025 0.5
0.0886222 0.0141525 -0.0025 0.5
0.0643372 0.062715 9.12625e-20 0.5
0.0886222 0.0147075 -0.0025 0.5
0.0886222 0.0147075 0.0025 0.5
0.0886222 0.014985 7.52748e-21 0.5
0.0883444 0.01665 0.0025 0.5
0.0883444 0.01665 -0.0025 0.5
0.0886222 0.0152625 -0.0025 0.5
0.0886222 0.0152625 0.0025 0.5
0.0886222 0.0158175 0.0025 0.5
0.0886222 0.0158175 -0.0025 0.5
0.0886222 0.016095 0 0.5
0.0883444 0.01776 0.0025 0.5
0.0883444 0.01776 -0.0025 0.5
0.0886222 0.0163725 0.0025 0.5
0.0886222 0.0163725 -0.0025 0.5
0.0643324 0.0631501 -0.00195983 0.5
0.0643324 0.0631501 0.00195983 0.5
0.0643324 0.0631501 0.0025 0.5
0.0643324 0.0631501 -0.0025 0.5
0.0642515 0.06327 0.0025 0.5
0.0642515 0.06327 -0.0025 0.5
0.0886222 0.0169275 0.0025 0.5
0.0886222 0.0169275 -0.0025 0.5
0.0886222 0.017205 0 0.5
0.0643271 0.0633953 -0.00193568 0.5
0.0643271 0.0633953 0.00193568 0.5
0.0643271 0.0633953 0.0025 0.5
0.0643271 0.0633953 -0.0025 0.5
0.0886222 0.0174825 0.0025 0.5
0.0886222 0.0174825 -0.0025 0.5
0.0883444 0.01887 0.0025 0.5
0.0883444 0.01887 -0.0025 0.5
0.0886222 0.0180375 0.0025 0.5
0.0886222 0.0180375 -0.0025 0.5
0.0886222 0.018315 -4.24739e-19 0.5
0.0886222 0.0185925 0.0025 0.5
0.0886222 0.0185925 -0.0025 0.5
0.0883444 0.01998 0.0025 0.5
0.0883444 0.01998 -0.0025 0.5
0.0643223 0.063825 0 0.5
0.0886222 0.0191475 0.0025 0.5
0.0886222 0.0191475 -0.0025 0.5
0.0886222 0.019425 2.54579e-19 0.5
0.0886222 0.0197025 0.0025 0.5
0.0886222 0.0197025 -0.0025 0.5
0.0883444 0.02109 0.0025 0.5
0.0883444 0.02109 -0.0025 0.5
0.0643197 0.0642474 -0.00190257 0.5
0.0643197 0.0642474 0.00190257 0.5
0.0886222 0.0202575 0.0025 0.5
0.0886222 0.0202575 -0.0025 0.5
0.0643197 0.0642474 0.0025 0.5
0.0643197 0.0642474 -0.0025 0.5
0.0886222 0.020535 -4.2863e-21 0.5
0.064236 0.06438 0.0025 0.5
0.064236 0.06438 -0.0025 0.5
0.0886222 0.0208125 0.0025 0.5
0.0886222 0.0208125 -0.0025 0.5
0.0643164 0.064516 0.00188759 0.5
0.0643164 0.064516 -0.00188759 0.5
0.0883444 0.0222 0.0025 0.5
0.0883444 0.0222 -0.0025 0.5
0.0643164 0.064516 0.0025 0.5
0.0643164 0.064516 -0.0025 0.5
0.0886222 0.0213675 0.0025 0.5
0.0886222 0.0213675 -0.0025 0.5
0.0886222 0.021645 -2.44648e-21 0.5
0.0886222 0.0219225 0.0025 0.5
0.0886222 0.0219225 -0.0025 0.5
0.0643138 0.064935 0 0.5
0.0883444 0.02331 0.0025 0.5
0.0883444 0.02331 -0.0025 0.5
0.0886222 0.0224775 0.0025 0.5
0.0886222 0.0224775 -0.0025 0.5
0.0886222 0.022755 -2.49561e-19 0.5
0.0886222 0.0230325 0.0025 0.5
0.0886222 0.0230325 -0.0025 0.5
0.0883444 0.02442 0.0025 0.5
0.0883444 0.02442 -0.0025 0.5
0.0643227 0.0653604 -0.00191619 0.5
0.0643227 0.0653604 0.00191619 0.5
0.0643227 0.0653604 0.0025 0.5
0.0643227 0.0653604 -0.0025 0.5
0.0886222 0.0235875 0.0025 0.5
0.0886222 0.0235875 -0.0025 0.5
0.0642492 0.06549 0.0025 0.5
0.0642492 0.06549 -0.0025 0.5
0.0886222 0.023865 4.33092e-19 0.5
0.0886222 0.0241425 0.0025 0.5
0.0886222 0.0241425 -0.0025 0.5
0.064333 0.0656093 0.00196247 0.5
0.064333 0.0656093 -0.00196247 0.5
0.064333 0.0656093 0.0025 0.5
0.064333 0.0656093 -0.0025 0.5
0.0883444 0.02553 0.0025 0.5
0.0883444 0.02553 -0.0025 0.5
0.0886222 0.0246975 -0.0025 0.5
0.0886222 0.0246975 0.0025 0.5
0.0644525 0.0656617 -0.0025 0.5
0.0644525 0.0656617 0.0025 0.5
0.0886222 0.024975 1.19177e-21 0.5
0.0886222 0.0252525 0.0025 0.5
0.0886222 0.0252525 -0.0025 0.5
0.0643419 0.066045 0 0.5
0.0883444 0.02664 0.0025 0.5
0.0883444 0.02664 -0.0025 0.5
0.0886222 0.0258075 0.0025 0.5
0.0886222 0.0258075 -0.0025 0.5
0.0886222 0.026085 9.22105e-21 0.5
0.0886222 0.0263625 0.0025 0.5
0.0886222 0.0263625 -0.0025 0.5
0.0883444 0.02775 0.0025 0.5
0.0883444 0.02775 -0.0025 0.5
0.0886222 0.0269175 0.0025 0.5
0.0886222 0.0269175 -0.0025 0.5
0.0886222 0.027195 1.2044e-20 0.5
0.0647303 0.0663225 0.0025 0.5
0.0647303 0.0663225 -0.0025 0.5
0.0886222 0.0274725 0.0025 0.5
0.0886222 0.0274725 -0.0025 0.5
0.0650081 0.0663225 0 0.5
0.0883444 0.02886 0.0025 0.5
0.0883444 0.02886 -0.0025 0.5
0.0886222 0.0280275 0.0025 0.5
0.0886222 0.0280275 -0.0025 0.5