# f_l  POINT_DATA 1281
#  x  y  z  f_l
0.0644222 0.001665 2.554e-20 0.5
0.0644551 0.002775 -7.85383e-20 0.5
0.0644305 0.00222 0.0025 0.5
0.0644305 0.00222 -0.0025 0.5
0.0644382 0.00220569 -0.00243556 0.5
0.0644382 0.00220569 0.00243556 0.5
0.0644387 0.00223374 0.00243809 0.5
0.0644387 0.00223374 -0.00243809 0.5
0.0644382 0.00220569 0.0025 0.5
0.0644382 0.00220569 -0.0025 0.5
0.0644387 0.00223374 0.0025 0.5
0.0644387 0.00223374 -0.0025 0.5
0.0644525 0.00187166 -0.0025 0.5
0.0644525 0.00187166 0.0025 0.5
0.0644799 0.00113736 -0.00237674 0.5
0.0644799 0.00113736 0.00237674 0.5
0.0644799 0.00113736 0.0025 0.5
0.0644799 0.00113736 -0.0025 0.5
0.0644942 0.0010683 -0.00231218 0.5
0.0644942 0.0010683 0.00231218 0.5
0.0644942 0.0010683 0.0025 0.5
0.0644942 0.0010683 -0.0025 0.5
0.0645011 0.00111 0.0025 0.5
0.0645011 0.00111 -0.0025 0.5
0.0644525 0.00274325 -0.0025 0.5
0.0644525 0.00274325 0.0025 0.5
0.064468 0.00331449 -0.00243015 0.5
0.064468 0.00331449 0.00243015 0.5
0.0644822 0.003885 -9.5161e-20 0.5
0.0644691 0.00334656 -0.00242539 0.5
0.0644691 0.00334656 0.00242539 0.5
0.064468 0.00331449 0.0025 0.5
0.064468 0.00331449 -0.0025 0.5
0.0644691 0.00334656 0.0025 0.5
0.0644691 0.00334656 -0.0025 0.5
0.0644772 0.00333 0.0025 0.5
0.0644772 0.00333 -0.0025 0.5
0.0644962 0.00439638 -0.00230353 0.5
0.0644962 0.00439638 0.00230353 0.5
0.0644962 0.00439638 0.0025 0.5
0.0644962 0.00439638 -0.0025 0.5
0.0644997 0.00448711 -0.00228781 0.5
0.0644997 0.00448711 0.00228781 0.5
0.0644997 0.00448711 0.0025 0.5
0.0644997 0.00448711 -0.0025 0.5
0.0645138 0.004995 7.81986e-20 0.5
0.0645201 0.00444 0.0025 0.5
0.0645201 0.00444 -0.0025 0.5
0.0645297 0.00547287 -0.00215259 0.5
0.0645297 0.00547287 0.00215259 0.5
0.0645297 0.00547287 0.0025 0.5
0.0645297 0.00547287 -0.0025 0.5
0.0645375 0.0056349 -0.00211758 0.5
0.0645375 0.0056349 0.00211758 0.5
0.0645375 0.0056349 0.0025 0.5
0.0645375 0.0056349 -0.0025 0.5
0.0645536 0.006105 -2.30065e-19 0.5
0.0645686 0.00555 -0.0025 0.5
0.0645686 0.00555 0.0025 0.5
0.064838 0.000385089 0.0025 0.5
0.064838 0.000385089 -0.0025 0.5
0.0645706 0.00654202 -0.00196855 0.5
0.0645706 0.00654202 0.00196855 0.5
0.0645706 0.00654202 0.0025 0.5
0.0645706 0.00654202 -0.0025 0.5
0.0649557 0.000396416 -3.83369e-22 0.5
0.0645854 0.00679278 -0.00190188 0.5
0.0645854 0.00679278 0.00190188 0.5
0.0645854 0.00679278 0.0025 0.5
0.0645854 0.00679278 -0.0025 0.5
0.0646025 0.007215 -1.43493e-19 0.5
0.0646237 0.00666 -0.0025 0.5
0.0646237 0.00666 0.0025 0.5
0.06462 0.00760267 -0.00174626 0.5
0.06462 0.00760267 0.00174626 0.5
0.06462 0.00760267 0.0025 0.5
0.06462 0.00760267 -0.0025 0.5
0.0646449 0.00796218 -0.00163432 0.5
0.0646449 0.00796218 0.00163432 0.5
0.0646449 0.00796218 0.0025 0.5
0.0646449 0.00796218 -0.0025 0.5
0.064662 0.008325 -2.43448e-19 0.5
0.064684 0.00777 0.0025 0.5
0.064684 0.00777 -0.0025 0.5
0.0651782 0.000385089 0.0025 0.5
0.0651782 0.000385089 -0.0025 0.5
0.0646793 0.00865349 -0.00147967 0.5
0.0646793 0.00865349 0.00147967 0.5
0.0646793 0.00865349 0.0025 0.5
0.0646793 0.00865349 -0.0025 0.5
0.0647189 0.00914607 -0.00130147 0.5
0.0647189 0.00914607 0.00130147 0.5
0.0647492 0.00888 0.0025 0.5
0.0647492 0.00888 -0.0025 0.5
0.0647189 0.00914607 0.0025 0.5
0.0647189 0.00914607 -0.0025 0.5
0.0647454 0.00960641 -2.05525e-19 0.5
0.0647507 0.00969212 0.0025 0.5
0.0647507 0.00969212 -0.0025 0.5
0.0655638 0.000622516 -0.0025 0.5
0.0655638 0.000622516 0.0025 0.5
0.0648195 0.00999 0.0025 0.5
0.0648195 0.00999 -0.0025 0.5
0.0648263 0.0105367 -3.18644e-20 0.5
0.0648138 0.0103509 0.0025 0.5
0.0648138 0.0103509 -0.0025 0.5
0.0648387 0.0107142 0.0025 0.5
0.0648387 0.0107142 -0.0025 0.5
0.0648946 0.0111 0.0025 0.5
0.0648946 0.0111 -0.0025 0.5
0.0658416 0.0002775 0.0025 0.5
0.0658416 0.0002775 -0.0025 0.5
0.064948 0.0116938 3.18756e-20 0.5
0.0649376 0.0115846 0.0025 0.5
0.0649376 0.0115846 -0.0025 0.5
0.0649481 0.0117149 0.0025 0.5
0.0649481 0.0117149 -0.0025 0.5
0.0661194 0.0002775 -1.81913e-21 0.5
0.0649735 0.01221 -0.0025 0.5
0.0649735 0.01221 0.0025 0.5
0.0650749 0.0127675 8.25122e-20 0.5
0.0650712 0.012702 -0.0025 0.5
0.0650712 0.012702 0.0025 0.5
0.0650788 0.0128356 -0.0025 0.5
0.0650788 0.0128356 0.0025 0.5
0.0663972 0.0002775 0.0025 0.5
0.0663972 0.0002775 -0.0025 0.5
0.0650546 0.01332 0.0025 0.5
0.0650546 0.01332 -0.0025 0.5
0.0651849 0.0138814 6.96902e-20 0.5
0.0651756 0.0137077 0.0025 0.5
0.0651756 0.0137077 -0.0025 0.5
0.066675 0.000555 -0.0025 0.5
0.066675 0.000555 0.0025 0.5
0.0651947 0.0140614 0.0025 0.5
0.0651947 0.0140614 -0.0025 0.5
0.0651368 0.01443 0.0025 0.5
0.0651368 0.01443 -0.0025 0.5
0.065269 0.0148141 -4.86776e-22 0.5
0.0652648 0.0147287 0.0025 0.5
0.0652648 0.0147287 -0.0025 0.5
0.0669528 0.0002775 0.0025 0.5
0.0669528 0.0002775 -0.0025 0.5
0.065292 0.0152685 -0.00127714 0.5
0.065292 0.0152685 0.00127714 0.5
0.0652179 0.01554 0.0025 0.5
0.0652179 0.01554 -0.0025 0.5
0.065292 0.0152685 0.0025 0.5
0.065292 0.0152685 -0.0025 0.5
0.0653399 0.0157636 0.00149286 0.5
0.0653399 0.0157636 -0.00149286 0.5
0.0672306 0.0002775 9.10876e-20 0.5
0.0653399 0.0157636 0.0025 0.5
0.0653399 0.0157636 -0.0025 0.5
0.0653552 0.016095 4.4673e-20 0.5
0.0652947 0.01665 0.0025 0.5
0.0652947 0.01665 -0.0025 0.5
0.0653712 0.0164577 -0.00163373 0.5
0.0653712 0.0164577 0.00163373 0.5
0.0653712 0.0164577 0.0025 0.5
0.0653712 0.0164577 -0.0025 0.5
0.0654012 0.0168124 0.00176861 0.5
0.0654012 0.0168124 -0.00176861 0.5
0.0675084 0.0002775 0.0025 0.5
0.0675084 0.0002775 -0.0025 0.5
0.0654012 0.0168124 0.0025 0.5
0.0654012 0.0168124 -0.0025 0.5
0.0654171 0.017205 -1.82856e-20 0.5
0.0653739 0.01776 0.0025 0.5
0.0653739 0.01776 -0.0025 0.5
0.065439 0.0176354 -0.00193868 0.5
0.065439 0.0176354 0.00193868 0.5
0.065439 0.0176354 0.0025 0.5
0.065439 0.0176354 -0.0025 0.5
0.0677863 0.000555 -0.0025 0.5
0.0677863 0.000555 0.0025 0.5
0.0654551 0.0178685 -0.00201119 0.5
0.0654551 0.0178685 0.00201119 0.5
0.0654551 0.0178685 0.0025 0.5
0.0654551 0.0178685 -0.0025 0.5
0.065477 0.018315 -7.17596e-19 0.5
0.0680641 0.0002775 0.0025 0.5
0.0680641 0.0002775 -0.0025 0.5
0.0655031 0.01887 0.0025 0.5
0.0655031 0.01887 -0.0025 0.5
0.0655263 0.0188326 0.00233155 0.5
0.0655263 0.0188326 -0.00233155 0.5
0.0655263 0.0188326 0.0025 0.5
0.0655263 0.0188326 -0.0025 0.5
0.0655301 0.0189036 0.00234868 0.5
0.0655301 0.0189036 -0.00234868 0.5
0.0655301 0.0189036 0.0025 0.5
0.0655301 0.0189036 -0.0025 0.5
0.0683419 0.0002775 1.14121e-19 0.5
0.0655638 0.0192498 -0.0025 0.5
0.0655638 0.0192498 0.0025 0.5
0.0655846 0.019425 6.50497e-19 0.5
0.0656292 0.0199146 -0.00220543 0.5
0.0656292 0.0199146 0.00220543 0.5
0.0656292 0.0199146 0.0025 0.5
0.0656292 0.0199146 -0.0025 0.5
0.0686197 0.0002775 0.0025 0.5
0.0686197 0.0002775 -0.0025 0.5
0.0656515 0.0200676 -0.00210531 0.5
0.0656515 0.0200676 0.00210531 0.5
0.0656515 0.0200676 0.0025 0.5
0.0656515 0.0200676 -0.0025 0.5
0.0656821 0.01998 0.0025 0.5
0.0656821 0.01998 -0.0025 0.5
0.0656985 0.020535 -3.98174e-21 0.5
0.0688975 0.000555 -0.0025 0.5
0.0688975 0.000555 0.0025 0.5
0.0657347 0.0209193 -0.00173104 0.5
0.0657347 0.0209193 0.00173104 0.5
0.0657347 0.0209193 0.0025 0.5
0.0657347 0.0209193 -0.0025 0.5
0.0658351 0.02109 0.0025 0.5
0.0658351 0.02109 -0.0025 0.5
0.065798 0.021324 -0.00144607 0.5
0.065798 0.021324 0.00144607 0.5
0.065798 0.021324 -0.0025 0.5
0.065798 0.021324 0.0025 0.5
0.0691753 0.0002775 0.0025 0.5
0.0691753 0.0002775 -0.0025 0.5
0.0658495 0.0218189 1.15757e-19 0.5
0.0658583 0.0219058 -0.0025 0.5
0.0658583 0.0219058 0.0025 0.5
0.0694531 0.0002775 9.36031e-20 0.5
0.0659729 0.0222 0.0025 0.5
0.0659729 0.0222 -0.0025 0.5
0.0697309 0.0002775 0.0025 0.5
0.0697309 0.0002775 -0.0025 0.5
0.0659849 0.0226207 0.0025 0.5
0.0659849 0.0226207 -0.0025 0.5
0.0659993 0.0227459 -3.06013e-20 0.5
0.0660123 0.0228619 0.0025 0.5
0.0660123 0.0228619 -0.0025 0.5
0.0700088 0.000555 -0.0025 0.5
0.0700088 0.000555 0.0025 0.5
0.0661002 0.02331 0.0025 0.5
0.0661002 0.02331 -0.0025 0.5
0.0702866 0.0002775 0.0025 0.5
0.0702866 0.0002775 -0.0025 0.5
0.0662014 0.0238264 5.62852e-21 0.5
0.0662005 0.023784 0.0025 0.5
0.0662005 0.023784 -0.0025 0.5
0.0662167 0.0239622 0.0025 0.5
0.0662167 0.0239622 -0.0025 0.5
0.0705644 0.0002775 2.66209e-19 0.5
0.0662184 0.02442 0.0025 0.5
0.0662184 0.02442 -0.0025 0.5
0.0663465 0.0247482 0.0025 0.5
0.0663465 0.0247482 -0.0025 0.5
0.0708422 0.0002775 0.0025 0.5
0.0708422 0.0002775 -0.0025 0.5
0.0663645 0.0249873 -8.32756e-20 0.5
0.0663833 0.0252386 0.0025 0.5
0.0663833 0.0252386 -0.0025 0.5
0.0663283 0.02553 -0.0025 0.5
0.0663283 0.02553 0.0025 0.5
0.07112 0.000555 -0.0025 0.5
0.07112 0.000555 0.0025 0.5
0.0664538 0.0257509 0.00150493 0.5
0.0664538 0.0257509 -0.00150493 0.5
0.0664538 0.0257509 0.0025 0.5
0.0664538 0.0257509 -0.0025 0.5
0.0664754 0.026085 -6.36752e-20 0.5
0.0713978 0.0002775 0.0025 0.5
0.0713978 0.0002775 -0.0025 0.5
0.0664974 0.0264626 0.00170072 0.5
0.0664974 0.0264626 -0.00170072 0.5
0.0664974 0.0264626 0.0025 0.5
0.0664974 0.0264626 -0.0025 0.5
0.0664288 0.02664 0.0025 0.5
0.0664288 0.02664 -0.0025 0.5
0.0716756 0.0002775 9.36031e-20 0.5
0.0665326 0.0267823 0.00185906 0.5
0.0665326 0.0267823 -0.00185906 0.5
0.0665326 0.0267823 0.0025 0.5
0.0665326 0.0267823 -0.0025 0.5
0.0665541 0.027195 8.18801e-19 0.5
0.0719534 0.0002775 0.0025 0.5
0.0719534 0.0002775 -0.0025 0.5
0.0665745 0.0276496 -0.00204791 0.5
0.0665745 0.0276496 0.00204791 0.5
0.0665174 0.02775 0.0025 0.5
0.0665174 0.02775 -0.0025 0.5
0.0665745 0.0276496 0.0025 0.5
0.0665745 0.0276496 -0.0025 0.5
0.0665904 0.0278345 0.00211949 0.5
0.0665904 0.0278345 -0.00211949 0.5
0.0665904 0.0278345 0.0025 0.5
0.0665904 0.0278345 -0.0025 0.5
0.0722313 0.000555 -0.0025 0.5
0.0722313 0.000555 0.0025 0.5
0.0666098 0.028305 -6.61389e-19 0.5
0.0725091 0.0002775 0.0025 0.5
0.0725091 0.0002775 -0.0025 0.5
0.0666121 0.02886 0.0025 0.5
0.0666121 0.02886 -0.0025 0.5
0.0666388 0.0288238 -0.00233712 0.5
0.0666388 0.0288238 0.00233712 0.5
0.0666388 0.0288238 0.0025 0.5
0.0666388 0.0288238 -0.0025 0.5
0.0666424 0.0288926 0.00235329 0.5
0.0666424 0.0288926 -0.00235329 0.5
0.0666424 0.0288926 0.0025 0.5
0.0666424 0.0288926 -0.0025 0.5
0.0727869 0.0002775 1.145e-19 0.5
0.0666718 0.029415 -4.06556e-20 0.5
0.066675 0.0293537 -0.0025 0.5
0.066675 0.0293537 0.0025 0.5
0.0730647 0.0002775 0.0025 0.5
0.0730647 0.0002775 -0.0025 0.5
0.0667147 0.0299304 -0.00232143 0.5
0.0667147 0.0299304 0.00232143 0.5
0.0667147 0.0299304 0.0025 0.5
0.0667147 0.0299304 -0.0025 0.5
0.066728 0.0300229 -0.00226172 0.5
0.066728 0.0300229 0.00226172 0.5
0.066728 0.0300229 0.0025 0.5
0.066728 0.0300229 -0.0025 0.5
0.066755 0.02997 0.0025 0.5
0.066755 0.02997 -0.0025 0.5
0.0733425 0.000555 -0.0025 0.5
0.0733425 0.000555 0.0025 0.5
0.0667747 0.030525 -1.04675e-19 0.5
0.0668045 0.0309506 -0.0019171 0.5
0.0668045 0.0309506 0.0019171 0.5
0.0736203 0.0002775 0.0025 0.5
0.0736203 0.0002775 -0.0025 0.5
0.0668045 0.0309506 0.0025 0.5
0.0668045 0.0309506 -0.0025 0.5
0.0668428 0.0312476 -0.00174509 0.5
0.0668428 0.0312476 0.00174509 0.5
0.0669008 0.03108 0.0025 0.5
0.0669008 0.03108 -0.0025 0.5
0.0668428 0.0312476 0.0025 0.5
0.0668428 0.0312476 -0.0025 0.5
0.0738981 0.0002775 1.12679e-19 0.5
0.0668731 0.031635 -3.23434e-21 0.5
0.0669186 0.0319467 -0.00140383 0.5
0.0669186 0.0319467 0.00140383 0.5
0.0669186 0.0319467 0.0025 0.5
0.0669186 0.0319467 -0.0025 0.5
0.0741759 0.0002775 0.0025 0.5
0.0741759 0.0002775 -0.0025 0.5
0.0670779 0.03219 0.0025 0.5
0.0670779 0.03219 -0.0025 0.5
0.0744538 0.000555 -0.0025 0.5
0.0744538 0.000555 0.0025 0.5
0.0671512 0.0326657 0.0025 0.5
0.0671512 0.0326657 -0.0025 0.5
0.0671689 0.0327762 -1.44171e-20 0.5
0.0747316 0.0002775 0.0025 0.5
0.0747316 0.0002775 -0.0025 0.5
0.0671717 0.0328039 0.0025 0.5
0.0671717 0.0328039 -0.0025 0.5
0.0750094 0.0002775 1.14375e-19 0.5
0.067237 0.0333 0.0025 0.5
0.067237 0.0333 -0.0025 0.5
0.0752872 0.0002775 0.0025 0.5
0.0752872 0.0002775 -0.0025 0.5
0.0673195 0.0337662 0.0025 0.5
0.0673195 0.0337662 -0.0025 0.5
0.0673237 0.033857 2.59725e-19 0.5
0.0673257 0.0339499 0.0025 0.5
0.0673257 0.0339499 -0.0025 0.5
0.075565 0.000555 -0.0025 0.5
0.075565 0.000555 0.0025 0.5
0.0672813 0.03441 0.0025 0.5
0.0672813 0.03441 -0.0025 0.5
0.0673236 0.0348721 0.0025 0.5
0.0673236 0.0348721 -0.0025 0.5
0.0673262 0.0349677 1.807e-20 0.5
0.0758428 0.0002775 0.0025 0.5
0.0758428 0.0002775 -0.0025 0.5
0.0673316 0.0350659 0.0025 0.5
0.0673316 0.0350659 -0.0025 0.5
0.0761206 0.0002775 1.14623e-19 0.5
0.06733 0.03552 0.0025 0.5
0.06733 0.03552 -0.0025 0.5
0.0674493 0.0358566 0.0025 0.5
0.0674493 0.0358566 -0.0025 0.5
0.0763984 0.0002775 0.0025 0.5
0.0763984 0.0002775 -0.0025 0.5
0.0674639 0.0360846 3.75458e-20 0.5
0.067478 0.0363221 0.0025 0.5
0.067478 0.0363221 -0.0025 0.5
0.0766763 0.000555 -0.0025 0.5
0.0766763 0.000555 0.0025 0.5
0.0674174 0.03663 0.0025 0.5
0.0674174 0.03663 -0.0025 0.5
0.0675363 0.0368796 0.00137557 0.5
0.0675363 0.0368796 -0.00137557 0.5
0.0675363 0.0368796 0.0025 0.5
0.0675363 0.0368796 -0.0025 0.5
0.0769541 0.0002775 0.0025 0.5
0.0769541 0.0002775 -0.0025 0.5
0.0675515 0.037185 1.33842e-19 0.5
0.0772319 0.0002775 1.08196e-19 0.5
0.0675649 0.0375189 -0.00150395 0.5
0.0675649 0.0375189 0.00150395 0.5
0.0675649 0.0375189 0.0025 0.5
0.0675649 0.0375189 -0.0025 0.5
0.0674874 0.03774 0.0025 0.5
0.0674874 0.03774 -0.0025 0.5
0.0675965 0.0379296 0.00164606 0.5
0.0675965 0.0379296 -0.00164606 0.5
0.0775097 0.0002775 0.0025 0.5
0.0775097 0.0002775 -0.0025 0.5
0.0675965 0.0379296 -0.0025 0.5
0.0675965 0.0379296 0.0025 0.5
0.06761 0.038295 2.75936e-18 0.5
0.0777875 0.000555 -0.0025 0.5
0.0777875 0.000555 0.0025 0.5
0.0676223 0.0386863 -0.00176247 0.5
0.0676223 0.0386863 0.00176247 0.5
0.0676223 0.0386863 -0.0025 0.5
0.0676223 0.0386863 0.0025 0.5
0.0675452 0.03885 0.0025 0.5
0.0675452 0.03885 -0.0025 0.5
0.0676412 0.0389949 -0.00184738 0.5
0.0676412 0.0389949 0.00184738 0.5
0.0780653 0.0002775 0.0025 0.5
0.0780653 0.0002775 -0.0025 0.5
0.0676412 0.0389949 -0.0025 0.5
0.0676412 0.0389949 0.0025 0.5
0.0676534 0.039405 -2.639e-18 0.5
0.0783431 0.0002775 8.26565e-20 0.5
0.0676641 0.039838 -0.00195028 0.5
0.0676641 0.039838 0.00195028 0.5
0.0676641 0.039838 0.0025 0.5
0.0676641 0.039838 -0.0025 0.5
0.0675939 0.03996 0.0025 0.5
0.0675939 0.03996 -0.0025 0.5
0.0786209 0.0002775 0.0025 0.5
0.0786209 0.0002775 -0.0025 0.5
0.0676753 0.0400708 0.00200082 0.5
0.0676753 0.0400708 -0.00200082 0.5
0.0676753 0.0400708 0.0025 0.5
0.0676753 0.0400708 -0.0025 0.5
0.0676858 0.040515 5.22017e-19 0.5
0.0788988 0.000555 -0.0025 0.5
0.0788988 0.000555 0.0025 0.5
0.0676942 0.0409781 -0.00208587 0.5
0.0676942 0.0409781 0.00208587 0.5
0.0676332 0.04107 0.0025 0.5
0.0676332 0.04107 -0.0025 0.5
0.0676942 0.0409781 0.0025 0.5
0.0676942 0.0409781 -0.0025 0.5
0.0791766 0.0002775 0.0025 0.5
0.0791766 0.0002775 -0.0025 0.5
0.0677006 0.0411556 0.00211447 0.5
0.0677006 0.0411556 -0.00211447 0.5
0.0677006 0.0411556 0.0025 0.5
0.0677006 0.0411556 -0.0025 0.5
0.0794544 0.0002775 9.54222e-20 0.5
0.0677088 0.041625 -4.57765e-19 0.5
0.0677152 0.042109 -0.00218026 0.5
0.0677152 0.042109 0.00218026 0.5
0.0797322 0.0002775 0.0025 0.5
0.0797322 0.0002775 -0.0025 0.5
0.0676631 0.04218 0.0025 0.5
0.0676631 0.04218 -0.0025 0.5
0.0677152 0.042109 0.0025 0.5
0.0677152 0.042109 -0.0025 0.5
0.0677188 0.0422474 0.00219643 0.5
0.0677188 0.0422474 -0.00219643 0.5
0.0677188 0.0422474 0.0025 0.5
0.0677188 0.0422474 -0.0025 0.5
0.08001 0.000555 -0.0025 0.5
0.08001 0.000555 0.0025 0.5
0.067725 0.042735 2.44738e-19 0.5
0.0802878 0.0002775 0.0025 0.5
0.0802878 0.0002775 -0.0025 0.5
0.0677293 0.0432331 -0.00224388 0.5
0.0677293 0.0432331 0.00224388 0.5
0.0676846 0.04329 0.0025 0.5
0.0676846 0.04329 -0.0025 0.5
0.0677293 0.0432331 0.0025 0.5
0.0677293 0.0432331 -0.0025 0.5
0.0677312 0.0433449 0.00225249 0.5
0.0677312 0.0433449 -0.00225249 0.5
0.0677312 0.0433449 0.0025 0.5
0.0677312 0.0433449 -0.0025 0.5
0.0805656 0.0002775 1.15842e-19 0.5
0.0677355 0.043845 -1.23524e-18 0.5
0.0808434 0.0002775 0.0025 0.5
0.0808434 0.0002775 -0.0025 0.5
0.0676981 0.0444 0.0025 0.5
0.0676981 0.0444 -0.0025 0.5
0.0677379 0.0443517 -0.00228248 0.5
0.0677379 0.0443517 0.00228248 0.5
0.0677379 0.0443517 0.0025 0.5
0.0677379 0.0443517 -0.0025 0.5
0.0677388 0.0444474 0.00228658 0.5
0.0677388 0.0444474 -0.00228658 0.5
0.0677388 0.0444474 0.0025 0.5
0.0677388 0.0444474 -0.0025 0.5
0.0811213 0.000555 -0.0025 0.5
0.0811213 0.000555 0.0025 0.5
0.0677412 0.044955 2.77996e-18 0.5
0.0813991 0.0002775 0.0025 0.5
0.0813991 0.0002775 -0.0025 0.5
0.0677045 0.04551 0.0025 0.5
0.0677045 0.04551 -0.0025 0.5
0.067742 0.0454658 -0.00230082 0.5
0.067742 0.0454658 0.00230082 0.5
0.067742 0.0454658 0.0025 0.5
0.067742 0.0454658 -0.0025 0.5
0.0677422 0.045554 0.002302 0.5
0.0677422 0.045554 -0.002302 0.5
0.0677422 0.045554 0.0025 0.5
0.0677422 0.045554 -0.0025 0.5
0.0816769 0.0002775 9.5745e-20 0.5
0.067743 0.046065 3.27645e-19 0.5
0.0819547 0.0002775 0.0025 0.5
0.0819547 0.0002775 -0.0025 0.5
0.0677043 0.04662 0.0025 0.5
0.0677043 0.04662 -0.0025 0.5
0.0677421 0.0465759 0.00230154 0.5
0.0677421 0.0465759 -0.00230154 0.5
0.0677421 0.0465759 0.0025 0.5
0.0677421 0.0465759 -0.0025 0.5
0.0822325 0.000555 -0.0025 0.5
0.0822325 0.000555 0.0025 0.5
0.0677418 0.0466644 0.0023002 0.5
0.0677418 0.0466644 -0.0023002 0.5
0.0677418 0.0466644 0.0025 0.5
0.0677418 0.0466644 -0.0025 0.5
0.0825103 0.0002775 0.0025 0.5
0.0825103 0.0002775 -0.0025 0.5
0.067741 0.047175 1.45913e-18 0.5
0.0827881 0.0002775 8.32524e-20 0.5
0.0677386 0.0476824 -0.00228556 0.5
0.0677386 0.0476824 0.00228556 0.5
0.0676977 0.04773 0.0025 0.5
0.0676977 0.04773 -0.0025 0.5
0.0677386 0.0476824 -0.0025 0.5
0.0677386 0.0476824 0.0025 0.5
0.0677377 0.0477785 -0.00228147 0.5
0.0677377 0.0477785 0.00228147 0.5
0.0677377 0.0477785 -0.0025 0.5
0.0677377 0.0477785 0.0025 0.5
0.0830659 0.0002775 0.0025 0.5
0.0830659 0.0002775 -0.0025 0.5
0.0677353 0.048285 -2.71476e-18 0.5
0.0833437 0.000555 -0.0025 0.5
0.0833437 0.000555 0.0025 0.5
0.0677312 0.048785 -0.00225234 0.5
0.0677312 0.048785 0.00225234 0.5
0.0676846 0.04884 0.0025 0.5
0.0676846 0.04884 -0.0025 0.5
0.0677312 0.048785 0.0025 0.5
0.0677312 0.048785 -0.0025 0.5
0.0677294 0.0488968 0.0022441 0.5
0.0677294 0.0488968 -0.0022441 0.5
0.0677294 0.0488968 0.0025 0.5
0.0677294 0.0488968 -0.0025 0.5
0.0836216 0.0002775 0.0025 0.5
0.0836216 0.0002775 -0.0025 0.5
0.0677253 0.049395 1.18543e-18 0.5
0.0838994 0.0002775 3.228e-22 0.5
0.0677196 0.0498834 -0.00220015 0.5
0.0677196 0.0498834 0.00220015 0.5
0.0676648 0.04995 0.0025 0.5
0.0676648 0.04995 -0.0025 0.5
0.0677196 0.0498834 0.0025 0.5
0.0677196 0.0498834 -0.0025 0.5
0.0841772 0.0002775 0.0025 0.5
0.0841772 0.0002775 -0.0025 0.5
0.0677164 0.0500198 0.00218579 0.5
0.0677164 0.0500198 -0.00218579 0.5
0.0677164 0.0500198 0.0025 0.5
0.0677164 0.0500198 -0.0025 0.5
0.0677107 0.050505 -9.54442e-19 0.5
0.084455 0.000555 -0.0025 0.5
0.084455 0.000555 0.0025 0.5
0.0847328 0.0002775 0.0025 0.5
0.0847328 0.0002775 -0.0025 0.5
0.0677035 0.0509773 -0.0021275 0.5
0.0677035 0.0509773 0.0021275 0.5
0.0676383 0.05106 0.0025 0.5
0.0676383 0.05106 -0.0025 0.5
0.0677035 0.0509773 -0.0025 0.5
0.0677035 0.0509773 0.0025 0.5
0.0676982 0.051148 -0.00210369 0.5
0.0676982 0.051148 0.00210369 0.5
0.0676982 0.051148 0.0025 0.5
0.0676982 0.051148 -0.0025 0.5
0.0850106 0.0002775 0 0.5
0.0676908 0.051615 2.46287e-18 0.5
0.0852884 0.0002775 0.0025 0.5
0.0852884 0.0002775 -0.0025 0.5
0.0676822 0.0520661 -0.00203196 0.5
0.0676822 0.0520661 0.00203196 0.5
0.0676822 0.0520661 0.0025 0.5
0.0676822 0.0520661 -0.0025 0.5
0.0676053 0.05217 -0.0025 0.5
0.0676053 0.05217 0.0025 0.5
0.0676738 0.0522823 -0.00199418 0.5
0.0676738 0.0522823 0.00199418 0.5
0.0676738 0.0522823 -0.0025 0.5
0.0676738 0.0522823 0.0025 0.5
0.0855663 0.000555 -0.0025 0.5
0.0855663 0.000555 0.0025 0.5
0.0676651 0.052725 -1.92061e-18 0.5
0.0858441 0.0002775 0.0025 0.5
0.0858441 0.0002775 -0.0025 0.5
0.0676553 0.0531492 0.00191072 0.5
0.0676553 0.0531492 -0.00191072 0.5
0.0676553 0.0531492 0.0025 0.5
0.0676553 0.0531492 -0.0025 0.5
0.0675663 0.05328 0.0025 0.5
0.0675663 0.05328 -0.0025 0.5
0.0861219 0.0002775 0 0.5
0.0676423 0.0534238 -0.00185238 0.5
0.0676423 0.0534238 0.00185238 0.5
0.0676423 0.0534238 -0.0025 0.5
0.0676423 0.0534238 0.0025 0.5
0.0863997 0.0002775 0.0025 0.5
0.0863997 0.0002775 -0.0025 0.5
0.0676324 0.053835 -4.19167e-18 0.5
0.067622 0.0542259 0.001761 0.5
0.067622 0.0542259 -0.001761 0.5
0.067622 0.0542259 0.0025 0.5
0.067622 0.0542259 -0.0025 0.5
0.0866775 0.000555 -0.0025 0.5
0.0866775 0.000555 0.0025 0.5
0.0675222 0.05439 0.0025 0.5
0.0675222 0.05439 -0.0025 0.5
0.0676031 0.0545729 0.00167597 0.5
0.0676031 0.0545729 -0.00167597 0.5
0.0676031 0.0545729 0.0025 0.5
0.0676031 0.0545729 -0.0025 0.5
0.0869553 0.0002775 0.0025 0.5
0.0869553 0.0002775 -0.0025 0.5
0.0675927 0.054945 4.37617e-18 0.5
0.0872331 0.0002775 0 0.5
0.0675823 0.0552963 -0.00158243 0.5
0.0675823 0.0552963 0.00158243 0.5
0.0675823 0.0552963 0.0025 0.5
0.0675823 0.0552963 -0.0025 0.5
0.0674748 0.0555 0.0025 0.5
0.0674748 0.0555 -0.0025 0.5
0.0875109 0.0002775 0.0025 0.5
0.0875109 0.0002775 -0.0025 0.5
0.0675559 0.0557301 0.00146366 0.5
0.0675559 0.0557301 -0.00146366 0.5
0.0675559 0.0557301 0.0025 0.5
0.0675559 0.0557301 -0.0025 0.5
0.0675457 0.056055 -3.0786e-18 0.5
0.0877888 0.000555 -0.0025 0.5
0.0877888 0.000555 0.0025 0.5
0.067536 0.0563601 0.00137411 0.5
0.067536 0.0563601 -0.00137411 0.5
0.067536 0.0563601 0.0025 0.5
0.067536 0.0563601 -0.0025 0.5
0.0674259 0.05661 0.0025 0.5
0.0674259 0.05661 -0.0025 0.5
0.0880666 0.0002775 -0.00125 0.5
0.0880666 0.0002775 0.00125 0.5
0.0880666 0.0002775 0.0025 0.5
0.0880666 0.0002775 -0.0025 0.5
0.0675009 0.0568951 0.0025 0.5
0.0675009 0.0568951 -0.0025 0.5
0.0883444 0.0002775 0 0.5
0.0883444 0.00111 0.0025 0.5
0.0883444 0.00111 -0.0025 0.5
0.0883444 0.00222 0.0025 0.5
0.0883444 0.00222 -0.0025 0.5
0.0883444 0.00333 0.0025 0.5
0.0883444 0.00333 -0.0025 0.5
0.067492 0.0571592 6.45967e-19 0.5
0.0883444 0.00444 0.0025 0.5
0.0883444 0.00444 -0.0025 0.5
0.0883444 0.00555 0.0025 0.5
0.0883444 0.00555 -0.0025 0.5
0.0886222 0.000555 0 0.5
0.0883444 0.00666 0.0025 0.5
0.0883444 0.00666 -0.0025 0.5
0.0886222 0.0002775 -0.00125 0.5
0.0886222 0.0002775 0.00125 0.5
0.0886222 0.0008325 0.00125 0.5
0.0886222 0.0008325 -0.00125 0.5
0.0886222 0.001665 0 0.5
0.0674834 0.0574175 0.0025 0.5
0.0674834 0.0574175 -0.0025 0.5
0.0886222 0.0002775 0.0025 0.5
0.0886222 0.0002775 -0.0025 0.5
0.0886222 0.0008325 0.0025 0.5
0.0886222 0.0008325 -0.0025 0.5
0.0886222 0.002775 0 0.5
0.0886222 0.0013875 0.0025 0.5
0.0886222 0.0013875 -0.0025 0.5
0.0886222 0.0019425 0.0025 0.5
0.0886222 0.0019425 -0.0025 0.5
0.0886222 0.0024975 0.0025 0.5
0.0886222 0.0024975 -0.0025 0.5
0.0886222 0.003885 0 0.5
0.0886222 0.0030525 0.0025 0.5
0.0886222 0.0030525 -0.0025 0.5
0.0883444 0.00777 0.0025 0.5
0.0883444 0.00777 -0.0025 0.5
0.0886222 0.0036075 0.0025 0.5
0.0886222 0.0036075 -0.0025 0.5
0.0886222 0.0041625 0.0025 0.5
0.0886222 0.0041625 -0.0025 0.5
0.0673775 0.05772 0.0025 0.5
0.0673775 0.05772 -0.0025 0.5
0.0886222 0.004995 -1.81603e-19 0.5
0.0886222 0.0047175 0.0025 0.5
0.0886222 0.0047175 -0.0025 0.5
0.0886222 0.0052725 0.0025 0.5
0.0886222 0.0052725 -0.0025 0.5
0.0883444 0.00888 0.0025 0.5
0.0883444 0.00888 -0.0025 0.5
0.0886222 0.006105 -4.31797e-21 0.5
0.0886222 0.0058275 0.0025 0.5
0.0886222 0.0058275 -0.0025 0.5
0.0886222 0.0063825 0.0025 0.5
0.0886222 0.0063825 -0.0025 0.5
0.0886222 0.007215 3.76366e-21 0.5
0.0886222 0.0069375 -0.0025 0.5
0.0886222 0.0069375 0.0025 0.5
0.0883444 0.00999 0.0025 0.5
0.0883444 0.00999 -0.0025 0.5
0.0886222 0.0074925 -0.0025 0.5
0.0886222 0.0074925 0.0025 0.5
0.0886222 0.008325 1.10296e-21 0.5
0.0886222 0.0080475 -0.0025 0.5
0.0886222 0.0080475 0.0025 0.5
0.0674395 0.0580664 0.0025 0.5
0.0674395 0.0580664 -0.0025 0.5
0.0886222 0.0086025 -0.0025 0.5
0.0886222 0.0086025 0.0025 0.5
0.0883444 0.0111 0.0025 0.5
0.0883444 0.0111 -0.0025 0.5
0.0674324 0.0582704 1.18931e-18 0.5
0.0886222 0.009435 1.92878e-21 0.5
0.0886222 0.0091575 0.0025 0.5
0.0886222 0.0091575 -0.0025 0.5
0.0886222 0.0097125 0.0025 0.5
0.0886222 0.0097125 -0.0025 0.5
0.0883444 0.01221 0.0025 0.5
0.0883444 0.01221 -0.0025 0.5
0.0886222 0.010545 3.88923e-21 0.5
0.0886222 0.0102675 0.0025 0.5
0.0886222 0.0102675 -0.0025 0.5
0.0674256 0.0584697 -0.0025 0.5
0.0674256 0.0584697 0.0025 0.5
0.0886222 0.0108225 0.0025 0.5
0.0886222 0.0108225 -0.0025 0.5
0.0883444 0.01332 0.0025 0.5
0.0883444 0.01332 -0.0025 0.5
0.0886222 0.0113775 0.0025 0.5
0.0886222 0.0113775 -0.0025 0.5
0.0886222 0.011655 2.78619e-21 0.5
0.0673308 0.05883 -0.0025 0.5
0.0673308 0.05883 0.0025 0.5
0.0886222 0.0119325 0.0025 0.5
0.0886222 0.0119325 -0.0025 0.5
0.0886222 0.0124875 -0.0025 0.5
0.0886222 0.0124875 0.0025 0.5
0.0886222 0.012765 1.81655e-19 0.5
0.0883444 0.01443 0.0025 0.5
0.0883444 0.01443 -0.0025 0.5
0.0886222 0.0130425 -0.0025 0.5
0.0886222 0.0130425 0.0025 0.5
0.0886222 0.0135975 0.0025 0.5
0.0886222 0.0135975 -0.0025 0.5
0.0886222 0.013875 0 0.5
0.0883444 0.01554 0.0025 0.5
0.0883444 0.01554 -0.0025 0.5
0.0673713 0.0592445 0.0025 0.5
0.0673713 0.0592445 -0.0025 0.5
0.0886222 0.0141525 0.0025 0.5
0.0886222 0.0141525 -0.0025 0.5
0.0673663 0.0593817 1.13372e-18 0.5
0.0886222 0.0147075 -0.0025 0.5
0.0886222 0.0147075 0.0025 0.5
0.0886222 0.014985 7.52748e-21 0.5
0.0673614 0.0595156 0.0025 0.5
0.0673614 0.0595156 -0.0025 0.5
0.0883444 0.01665 0.0025 0.5
0.0883444 0.01665 -0.0025 0.5
0.0886222 0.0152625 -0.0025 0.5
0.0886222 0.0152625 0.0025 0.5
0.0886222 0.0158175 0.0025 0.5
0.0886222 0.0158175 -0.0025 0.5
0.0886222 0.016095 0 0.5
0.0672844 0.05994 0.0025 0.5
0.0672844 0.05994 -0.0025 0.5
0.0883444 0.01776 0.0025 0.5
0.0883444 0.01776 -0.0025 0.5
0.0886222 0.0163725 0.0025 0.5
0.0886222 0.0163725 -0.0025 0.5
0.0886222 0.0169275 0.0025 0.5
0.0886222 0.0169275 -0.0025 0.5
0.0886222 0.017205 0 0.5
0.0886222 0.0174825 0.0025 0.5
0.0886222 0.0174825 -0.0025 0.5
0.0883444 0.01887 0.0025 0.5
0.0883444 0.01887 -0.0025 0.5
0.0886222 0.0180375 0.0025 0.5
0.0886222 0.0180375 -0.0025 0.5
0.0672907 0.060435 -0.0025 0.5
0.0672907 0.060435 0.0025 0.5
0.0672885 0.0604936 -2.19481e-18 0.5
0.0886222 0.018315 -4.24739e-19 0.5
0.0672864 0.0605507 -0.0025 0.5
0.0672864 0.0605507 0.0025 0.5
0.0886222 0.0185925 0.0025 0.5
0.0886222 0.0185925 -0.0025 0.5
0.0883444 0.01998 0.0025 0.5
0.0883444 0.01998 -0.0025 0.5
0.0886222 0.0191475 0.0025 0.5
0.0886222 0.0191475 -0.0025 0.5
0.0886222 0.019425 2.54579e-19 0.5
0.0886222 0.0197025 0.0025 0.5
0.0886222 0.0197025 -0.0025 0.5
0.0672412 0.06105 0.0025 0.5
0.0672412 0.06105 -0.0025 0.5
0.0883444 0.02109 0.0025 0.5
0.0883444 0.02109 -0.0025 0.5
0.0886222 0.0202575 0.0025 0.5
0.0886222 0.0202575 -0.0025 0.5
0.0886222 0.020535 -4.2863e-21 0.5
0.0886222 0.0208125 0.0025 0.5
0.0886222 0.0208125 -0.0025 0.5
0.0883444 0.0222 0.0025 0.5
0.0883444 0.0222 -0.0025 0.5
0.0672138 0.0615857 2.61059e-18 0.5
0.0886222 0.0213675 0.0025 0.5
0.0886222 0.0213675 -0.0025 0.5
0.0672131 0.0615875 0.0025 0.5
0.0672131 0.0615875 -0.0025 0.5
0.0672119 0.0616237 -0.0025 0.5
0.0672119 0.0616237 0.0025 0.5
0.0886222 0.021645 -2.44648e-21 0.5
0.0886222 0.0219225 0.0025 0.5
0.0886222 0.0219225 -0.0025 0.5
0.0883444 0.02331 0.0025 0.5
0.0883444 0.02331 -0.0025 0.5
0.0886222 0.0224775 0.0025 0.5
0.0886222 0.0224775 -0.0025 0.5
0.0886222 0.022755 -2.49561e-19 0.5
0.0672048 0.06216 0.0025 0.5
0.0672048 0.06216 -0.0025 0.5
0.0886222 0.0230325 0.0025 0.5
0.0886222 0.0230325 -0.0025 0.5
0.0883444 0.02442 0.0025 0.5
0.0883444 0.02442 -0.0025 0.5
0.0886222 0.0235875 0.0025 0.5
0.0886222 0.0235875 -0.0025 0.5
0.0886222 0.023865 4.33092e-19 0.5
0.067154 0.0626385 0.0025 0.5
0.067154 0.0626385 -0.0025 0.5
0.067152 0.0627163 1.75748e-19 0.5
0.0886222 0.0241425 0.0025 0.5
0.0886222 0.0241425 -0.0025 0.5
0.0671501 0.0627955 0.0025 0.5
0.0671501 0.0627955 -0.0025 0.5
0.0883444 0.02553 0.0025 0.5
0.0883444 0.02553 -0.0025 0.5
0.0886222 0.0246975 -0.0025 0.5
0.0886222 0.0246975 0.0025 0.5
0.0886222 0.024975 1.19177e-21 0.5
0.0886222 0.0252525 0.0025 0.5
0.0886222 0.0252525 -0.0025 0.5
0.0883444 0.02664 0.0025 0.5
0.0883444 0.02664 -0.0025 0.5
0.0671745 0.06327 0.0025 0.5
0.0671745 0.06327 -0.0025 0.5
0.0886222 0.0258075 0.0025 0.5
0.0886222 0.0258075 -0.0025 0.5
0.0886222 0.026085 9.22105e-21 0.5
0.0886222 0.0263625 0.0025 0.5
0.0886222 0.0263625 -0.0025 0.5
0.0671091 0.0637037 0.0025 0.5
0.0671091 0.0637037 -0.0025 0.5
0.0671064 0.0638269 1.74418e-19 0.5
0.0883444 0.02775 0.0025 0.5
0.0883444 0.02775 -0.0025 0.5
0.0886222 0.0269175 0.0025 0.5
0.0886222 0.0269175 -0.0025 0.5
0.0886222 0.027195 1.2044e-20 0.5
0.0671035 0.063952 0.0025 0.5
0.0671035 0.063952 -0.0025 0.5
0.0886222 0.0274725 0.0025 0.5
0.0886222 0.0274725 -0.0025 0.5
0.0883444 0.02886 0.0025 0.5
0.0883444 0.02886 -0.0025 0.5
0.0886222 0.0280275 0.0025 0.5
0.0886222 0.0280275 -0.0025 0.5
0.0886222 0.028305 -8.22717e-21 0.5
0.0671466 0.06438 -0.0025 0.5
0.0671466 0.06438 0.0025 0.5
0.0886222 0.0285825 0.0025 0.5
0.0886222 0.0285825 -0.0025 0.5
0.0670684 0.064773 0.0025 0.5
0.0670684 0.064773 -0.0025 0.5
0.0886222 0.0291375 0.0025 0.5
0.0886222 0.0291375 -0.0025 0.5
0.0883444 0.02997 0.0025 0.5
0.0883444 0.02997 -0.0025 0.5
0.0670696 0.0649326 1.77454e-19 0.5
0.0886222 0.029415 -6.85063e-19 0.5
0.0886222 0.0296925 0.0025 0.5
0.0886222 0.0296925 -0.0025 0.5
0.0670757 0.0650898 0.0025 0.5
0.0670757 0.0650898 -0.0025 0.5
0.0886222 0.0302475 0.0025 0.5
0.0886222 0.0302475 -0.0025 0.5
0.0883444 0.03108 0.0025 0.5
0.0883444 0.03108 -0.0025 0.5
0.0886222 0.030525 6.22217e-19 0.5
0.0671789 0.06549 0.0025 0.5
0.0671789 0.06549 -0.0025 0.5
0.0886222 0.0308025 0.0025 0.5
0.0886222 0.0308025 -0.0025 0.5
0.0886222 0.0313575 0.0025 0.5
0.0886222 0.0313575 -0.0025 0.5
0.0883444 0.03219 0.0025 0.5
0.0883444 0.03219 -0.0025 0.5
0.0886222 0.031635 -3.88923e-21 0.5
0.0886222 0.0319125 0.0025 0.5
0.0886222 0.0319125 -0.0025 0.5
0.0672287 0.0660457 9.89203e-20 0.5
0.0672256 0.06604 0.0025 0.5
0.0672256 0.06604 -0.0025 0.5
0.0672284 0.0660473 0.0025 0.5
0.0672284 0.0660473 -0.0025 0.5
0.0672329 0.0660473 0.0025 0.5