5.55112e-20 	-1.01083e-20 	4.84494e-19 	0
0.000446734 	-0.000111083 	0.0035718 	1.64324e-28
0.000893467 	-0.00043651 	0.00520002 	8.52103e-28
0.0013402 	-0.000894135 	0.00608005 	4.92431e-28
0.00178693 	-0.00130012 	0.00641414 	1.72358e-28
0.00223367 	-0.0017564 	0.00643095 	1.64412e-28
0.0026804 	-0.00216095 	0.00632153 	0
0.00312714 	-0.00253777 	0.00602668 	0
0.00357387 	-0.00290872 	0.00568761 	0
0.0040206 	-0.00318622 	0.00519116 	0
0.00446734 	-0.00350717 	0.00468327 	0
0.00491407 	-0.00369663 	0.00403284 	0
0.0053608 	-0.00393967 	0.00338602 	0
0.00580754 	-0.00403843 	0.00261633 	0
0.00625427 	-0.00414743 	0.00185085 	0
0.00670101 	-0.0041836 	0.0010248 	1.76724e-28
0.00714774 	-0.00413245 	0.000207504 	8.28608e-28
0.00759447 	-0.00409987 	-0.0006242 	0
0.00804121 	-0.00390729 	-0.00140995 	1.28774e-27
0.00848794 	-0.00379517 	-0.00218283 	0
0.00893467 	-0.00351118 	-0.00286345 	-7.79798e-28
0.00938141 	-0.00329864 	-0.00350581 	1.33569e-28
0.00982814 	-0.00296172 	-0.00400432 	2.14039e-27
0.0102749 	-0.00263426 	-0.00441664 	8.5549e-27
0.0107216 	-0.00229247 	-0.00468546 	9.04109e-27
0.0111683 	-0.00189782 	-0.00478455 	4.02016e-27
0.0116151 	-0.00157302 	-0.00480293 	1.82403e-27
0.0120618 	-0.00119206 	-0.00461382 	-5.34919e-28
0.0125085 	-0.000897651 	-0.00440016 	-4.045e-28
0.0129553 	-0.000597214 	-0.00402578 	-1.14451e-27
0.013402 	-0.000346908 	-0.00366441 	-3.8359e-28
0.0138487 	-0.000148019 	-0.00321587 	2.65479e-28
0.0142955 	3.71251e-05 	-0.00280161 	6.26236e-29
0.0147422 	0.000149567 	-0.00238073 	1.5926e-27
0.0151889 	0.000243867 	-0.00202125 	6.13456e-27
0.0156357 	0.000294295 	-0.00169551 	8.59079e-27
0.0160824 	0.000303103 	-0.00146159 	7.31434e-27
0.0165291 	0.00030079 	-0.00127705 	8.02795e-27
0.0169759 	0.000254844 	-0.00116477 	3.71395e-27
0.0174226 	0.000214901 	-0.00110961 	2.07666e-28
0.0178693 	0.000148184 	-0.00107861 	-3.01939e-27
0.0183161 	8.86014e-05 	-0.00108437 	-7.75808e-27
0.0187628 	2.4184e-05 	-0.00103889 	-9.08647e-27
0.0192095 	-2.82455e-05 	-0.000954665 	-9.02296e-27
0.0196563 	-5.83477e-05 	-0.000789367 	-8.18827e-27
0.020103 	-2.7287e-05 	-0.000415594 	-3.01439e-27
0.0205497 	-7.1152e-06 	-0.000127854 	-5.28557e-28
0.0209965 	-2.31331e-06 	-5.0274e-05 	3.35094e-28
0.0214432 	-6.66266e-07 	-1.27637e-05 	0
0.0218899 	-1.42341e-07 	-7.28386e-08 	1.87306e-30
0.0223367 	-1.93238e-07 	-6.5626e-08 	2.70153e-32
0.0227834 	-2.12069e-07 	-5.99671e-08 	0
0.0232302 	-2.12156e-07 	-5.54533e-08 	0
0.0236769 	-2.12215e-07 	-5.15265e-08 	0
0.0241236 	-2.11873e-07 	-4.75869e-08 	0
0.0245704 	-2.11476e-07 	-4.43269e-08 	0
0.0250171 	-2.1097e-07 	-4.10313e-08 	0
0.0254638 	-2.10321e-07 	-3.84282e-08 	1.56393e-30
0.0259106 	-2.09742e-07 	-3.58202e-08 	8.75365e-30
0.0263573 	-2.08976e-07 	-3.3676e-08 	2.09349e-29
0.026804 	-2.0838e-07 	-3.1658e-08 	1.83523e-29
0.0272508 	-2.07581e-07 	-2.99069e-08 	7.59484e-30
0.0276975 	-2.06933e-07 	-2.83795e-08 	-1.67665e-31
0.0281442 	-2.06118e-07 	-2.69753e-08 	-7.55315e-30
0.028591 	-2.05388e-07 	-2.58554e-08 	-1.49467e-29
0.0290377 	-2.04581e-07 	-2.47567e-08 	-8.41481e-30
0.0294844 	-2.03761e-07 	-2.39697e-08 	-4.08263e-30
0.0299312 	-2.02953e-07 	-2.3183e-08 	-1.11235e-29
0.0303779 	-2.02055e-07 	-2.2621e-08 	-1.62738e-29
0.0308246 	-2.01216e-07 	-2.21151e-08 	-1.91674e-29
0.0312714 	-2.00262e-07 	-2.1724e-08 	-2.6177e-29
0.0317181 	-1.99355e-07 	-2.14419e-08 	-2.312e-29
0.0321648 	-1.98351e-07 	-2.11981e-08 	-1.46323e-29
0.0326116 	-1.97348e-07 	-2.1085e-08 	-1.14269e-29
0.0330583 	-1.96297e-07 	-2.0969e-08 	-3.58274e-30
0.033505 	-1.95191e-07 	-2.0977e-08 	-5.54138e-31
0.0339518 	-1.94084e-07 	-2.0983e-08 	0
0.0343985 	-1.92891e-07 	-2.10657e-08 	2.48771e-31
0.0348452 	-1.91707e-07 	-2.11763e-08 	2.14875e-30
0.035292 	-1.90447e-07 	-2.13064e-08 	1.56529e-30
0.0357387 	-1.89179e-07 	-2.14873e-08 	3.44271e-30
0.0361854 	-1.87859e-07 	-2.16568e-08 	4.09793e-30
0.0366322 	-1.86505e-07 	-2.18757e-08 	3.95639e-30
0.0370789 	-1.85127e-07 	-2.20754e-08 	1.07938e-29
0.0375256 	-1.83692e-07 	-2.23062e-08 	1.52248e-29
0.0379724 	-1.82256e-07 	-2.2532e-08 	1.39659e-29
0.0384191 	-1.80755e-07 	-2.276e-08 	1.54317e-29
0.0388658 	-1.79251e-07 	-2.29992e-08 	9.53801e-30
0.0393126 	-1.77704e-07 	-2.32181e-08 	3.0931e-30
0.0397593 	-1.76137e-07 	-2.34549e-08 	0
0.040206 	-1.74549e-07 	-2.36654e-08 	0
0.0406528 	-1.72927e-07 	-2.38852e-08 	0
0.0410995 	-1.71301e-07 	-2.40835e-08 	0
0.0415462 	-1.69636e-07 	-2.42753e-08 	0
0.041993 	-1.67973e-07 	-2.44623e-08 	0
0.0424397 	-1.66275e-07 	-2.46241e-08 	0
0.0428864 	-1.64573e-07 	-2.47893e-08 	0
0.0433332 	-1.62856e-07 	-2.49265e-08 	0
0.0437799 	-1.61122e-07 	-2.50653e-08 	0
0.0442266 	-1.59387e-07 	-2.51808e-08 	0
0.0446734 	-1.57632e-07 	-2.52886e-08 	-1.79814e-30
0.0451201 	-1.55882e-07 	-2.5382e-08 	-2.91215e-30
0.0455668 	-1.54115e-07 	-2.54576e-08 	-5.22634e-30
0.0460136 	-1.52352e-07 	-2.55301e-08 	-1.54461e-29
0.0464603 	-1.5058e-07 	-2.55753e-08 	-1.96314e-29
0.046907 	-1.48806e-07 	-2.56206e-08 	-2.0099e-29
0.0473538 	-1.47034e-07 	-2.56435e-08 	-2.04151e-29
0.0478005 	-1.45254e-07 	-2.56606e-08 	-1.25904e-29
0.0482472 	-1.43484e-07 	-2.56636e-08 	-4.57216e-30
0.048694 	-1.41706e-07 	-2.56536e-08 	0
0.0491407 	-1.39939e-07 	-2.56376e-08 	0
0.0495874 	-1.3817e-07 	-2.56033e-08 	0
0.0500342 	-1.36407e-07 	-2.55687e-08 	0
0.0504809 	-1.34651e-07 	-2.55132e-08 	0
0.0509276 	-1.32895e-07 	-2.5457e-08 	0
0.0513744 	-1.31154e-07 	-2.53865e-08 	3.41378e-31
0.0518211 	-1.2941e-07 	-2.53083e-08 	5.51027e-30
0.0522678 	-1.27681e-07 	-2.52247e-08 	1.39581e-29
0.0527146 	-1.25954e-07 	-2.51277e-08 	1.82789e-29
0.0531613 	-1.24239e-07 	-2.50315e-08 	1.7301e-29
0.053608 	-1.22532e-07 	-2.49196e-08 	1.59311e-29
0.0540548 	-1.20832e-07 	-2.48108e-08 	7.24824e-30
0.0545015 	-1.19148e-07 	-2.46877e-08 	2.40624e-30
0.0549482 	-1.17465e-07 	-2.45645e-08 	3.18176e-30
0.055395 	-1.15803e-07 	-2.44338e-08 	1.95797e-30
0.0558417 	-1.14142e-07 	-2.42961e-08 	5.21652e-30
0.0562884 	-1.125e-07 	-2.41594e-08 	3.86328e-30
0.0567352 	-1.10863e-07 	-2.40102e-08 	2.04165e-30
0.0571819 	-1.09239e-07 	-2.38667e-08 	2.47002e-30
0.0576286 	-1.07629e-07 	-2.37102e-08 	1.62003e-31
0.0580754 	-1.06025e-07 	-2.356e-08 	0
0.0585221 	-1.04442e-07 	-2.34e-08 	0
0.0589688 	-1.02859e-07 	-2.32412e-08 	0
0.0594156 	-1.01302e-07 	-2.30798e-08 	-6.80038e-31
0.0598623 	-9.97458e-08 	-2.29126e-08 	-5.53443e-30
0.060309 	-9.82098e-08 	-2.27505e-08 	-1.34867e-29
0.0607558 	-9.66813e-08 	-2.25772e-08 	-1.62679e-29
0.0612025 	-9.51663e-08 	-2.24126e-08 	-1.58719e-29
0.0616492 	-9.36659e-08 	-2.22371e-08 	-1.39761e-29
0.062096 	-9.2172e-08 	-2.20704e-08 	-5.98482e-30
0.0625427 	-9.06997e-08 	-2.18966e-08 	-1.97771e-30
0.0629894 	-8.92275e-08 	-2.17253e-08 	-3.00916e-30
0.0634362 	-8.77824e-08 	-2.15541e-08 	-1.92067e-30
0.0638829 	-8.63381e-08 	-2.13789e-08 	-4.98783e-30
0.0643296 	-8.4914e-08 	-2.12108e-08 	-3.03498e-30
0.0647764 	-8.34974e-08 	-2.10329e-08 	-1.98716e-30
0.0652231 	-8.20942e-08 	-2.08653e-08 	-1.98945e-30
0.0656698 	-8.07051e-08 	-2.06883e-08 	0
0.0661166 	-7.93225e-08 	-2.05215e-08 	0
0.0665633 	-7.79603e-08 	-2.03491e-08 	0
0.0670101 	-7.65985e-08 	-2.01805e-08 	0
0.0674568 	-7.52626e-08 	-2.00134e-08 	9.16813e-31
0.0679035 	-7.39269e-08 	-1.98437e-08 	5.30209e-30
0.0683503 	-7.26111e-08 	-1.96818e-08 	1.24003e-29
0.068797 	-7.13018e-08 	-1.95117e-08 	1.39503e-29
0.0692437 	-7.00054e-08 	-1.93522e-08 	1.40808e-29
0.0696905 	-6.87218e-08 	-1.91851e-08 	1.15913e-29
0.0701372 	-6.74446e-08 	-1.90279e-08 	4.75299e-30
0.0705839 	-6.61855e-08 	-1.88664e-08 	1.42324e-30
0.0710307 	-6.49274e-08 	-1.87096e-08 	4.9326e-30
0.0714774 	-6.36921e-08 	-1.85547e-08 	9.87746e-30
0.0719241 	-6.24571e-08 	-1.83986e-08 	4.15493e-30
0.0723709 	-6.12408e-08 	-1.82498e-08 	-6.01826e-31
0.0728176 	-6.00298e-08 	-1.80949e-08 	-7.96368e-30
0.0732643 	-5.88309e-08 	-1.795e-08 	-2.02727e-29
0.0737111 	-5.76428e-08 	-1.77987e-08 	-2.12495e-29
0.0741578 	-5.6461e-08 	-1.76569e-08 	-1.38524e-29
0.0746045 	-5.52948e-08 	-1.75115e-08 	-1.05182e-29
0.0750513 	-5.413e-08 	-1.73716e-08 	-3.71153e-30
0.075498 	-5.29846e-08 	-1.72334e-08 	-5.29392e-31
0.0759447 	-5.18393e-08 	-1.7095e-08 	0
0.0763915 	-5.07114e-08 	-1.69633e-08 	0
0.0768382 	-4.95872e-08 	-1.68272e-08 	0
0.0772849 	-4.84742e-08 	-1.67002e-08 	0
0.0777317 	-4.73701e-08 	-1.65679e-08 	0
0.0781784 	-4.62719e-08 	-1.64444e-08 	0
0.0786251 	-4.51866e-08 	-1.63178e-08 	0
0.0790719 	-4.4103e-08 	-1.61971e-08 	0
0.0795186 	-4.30355e-08 	-1.60777e-08 	-5.37133e-31
0.0799653 	-4.19677e-08 	-1.59589e-08 	-3.56051e-30
0.0804121 	-4.09158e-08 	-1.58461e-08 	-9.35726e-30
0.0808588 	-3.98661e-08 	-1.57303e-08 	-8.67507e-30
0.0813055 	-3.88265e-08 	-1.56225e-08 	-9.76265e-30
0.0817523 	-3.7794e-08 	-1.55103e-08 	-9.03496e-30
0.082199 	-3.67668e-08 	-1.54061e-08 	-3.72106e-30
0.0826457 	-3.57501e-08 	-1.52994e-08 	-4.10881e-30
0.0830925 	-3.4735e-08 	-1.51986e-08 	-1.03303e-29
0.0835392 	-3.37329e-08 	-1.50986e-08 	-1.26793e-29
0.0839859 	-3.27303e-08 	-1.49999e-08 	-1.25178e-29
0.0844327 	-3.17416e-08 	-1.49063e-08 	-1.20438e-29
0.0848794 	-3.0754e-08 	-1.48108e-08 	-6.7814e-30
0.0853261 	-2.97752e-08 	-1.47223e-08 	-2.12494e-30
0.0857729 	-2.88017e-08 	-1.46303e-08 	1.33358e-31
0.0862196 	-2.78329e-08 	-1.45453e-08 	1.42264e-31
0.0866663 	-2.68723e-08 	-1.44582e-08 	1.08357e-30
0.0871131 	-2.5913e-08 	-1.43767e-08 	2.32566e-30
0.0875598 	-2.4964e-08 	-1.42958e-08 	2.37655e-30
0.0880065 	-2.40145e-08 	-1.42164e-08 	8.33797e-30
0.0884533 	-2.30762e-08 	-1.41415e-08 	1.05257e-29
0.0889 	-2.21384e-08 	-1.40653e-08 	9.6312e-30
