# vtk DataFile Version 2.0
track0
ASCII
DATASET POLYDATA
POINTS 12075 float
-0.0205 0.001 1e-05
-0.02052 0.000999985 1e-05
-0.02054 0.000999974 1e-05
-0.02056 0.000999965 1e-05
-0.02058 0.000999959 1e-05
-0.0206 0.000999956 1e-05
-0.0205 0.00367778 1e-05
-0.02052 0.00367778 1e-05
-0.02054 0.00367777 1e-05
-0.02056 0.00367777 1e-05
-0.02058 0.00367777 1e-05
-0.0206 0.00367777 1e-05
-0.0205 0.00635556 1e-05
-0.02052 0.00635555 1e-05
-0.02054 0.00635555 1e-05
-0.02056 0.00635555 1e-05
-0.02058 0.00635555 1e-05
-0.0206 0.00635555 1e-05
-0.0205 0.00903333 1e-05
-0.02052 0.00903333 1e-05
-0.02054 0.00903333 1e-05
-0.02056 0.00903333 1e-05
-0.02058 0.00903333 1e-05
-0.0206 0.00903333 1e-05
-0.0205 0.0117111 1e-05
-0.02052 0.0117111 1e-05
-0.02054 0.0117111 1e-05
-0.02056 0.0117111 1e-05
-0.02058 0.0117111 1e-05
-0.0206 0.0117111 1e-05
-0.0205 0.0143889 1e-05
-0.02052 0.0143889 1e-05
-0.02054 0.0143889 1e-05
-0.02056 0.0143889 1e-05
-0.02058 0.0143889 1e-05
-0.0206 0.0143889 1e-05
-0.0205 0.0170667 1e-05
-0.02052 0.0170667 1e-05
-0.02054 0.0170667 1e-05
-0.02056 0.0170667 1e-05
-0.02058 0.0170667 1e-05
-0.0206 0.0170667 1e-05
-0.0205 0.0197444 1e-05
-0.02052 0.0197444 1e-05
-0.02054 0.0197444 1e-05
-0.02056 0.0197444 1e-05
-0.02058 0.0197444 1e-05
-0.0206 0.0197444 1e-05
-0.0205 0.0224222 1e-05
-0.02052 0.0224222 1e-05
-0.02054 0.0224222 1e-05
-0.02056 0.0224222 1e-05
-0.02058 0.0224222 1e-05
-0.0206 0.0224222 1e-05
-0.0205 0.0251 1e-05
-0.02052 0.0250998 1e-05
-0.02054 0.0250997 1e-05
-0.02056 0.0250995 1e-05
-0.02058 0.0250995 1e-05
-0.0206 0.0250994 1e-05
-0.0205 0.001 1e-05
-0.0202034 0.00100022 1e-05
-0.0199069 0.00100067 1e-05
-0.0196103 0.00100132 1e-05
-0.0193137 0.00100219 1e-05
-0.0190172 0.00100326 1e-05
-0.0187132 0.00100466 1e-05
-0.0184093 0.00100588 1e-05
-0.0181054 0.0010071 1e-05
-0.0178015 0.00100832 1e-05
-0.0174976 0.00100953 1e-05
-0.0172058 0.00101083 1e-05
-0.016914 0.00101193 1e-05
-0.0166222 0.00101303 1e-05
-0.0163305 0.00101413 1e-05
-0.0160387 0.00101523 1e-05
-0.0157586 0.00101636 1e-05
-0.0154784 0.00101745 1e-05
-0.0151983 0.00101856 1e-05
-0.0149182 0.00101972 1e-05
-0.0146381 0.0010209 1e-05
-0.0143747 0.00102209 1e-05
-0.0141113 0.00102327 1e-05
-0.0138479 0.00102449 1e-05
-0.0135846 0.00102574 1e-05
-0.0133621 0.00102682 1e-05
-0.0133484 0.00102689 1e-05
-0.0133346 0.00102695 1e-05
-0.0133209 0.00102702 1e-05
-0.0133072 0.00102709 1e-05
-0.0132934 0.00102716 1e-05
-0.0130353 0.00102845 1e-05
-0.0127771 0.00102975 1e-05
-0.0125189 0.00103107 1e-05
-0.0122607 0.0010324 1e-05
-0.0120025 0.00103376 1e-05
-0.0117547 0.00103506 1e-05
-0.0115068 0.00103638 1e-05
-0.0112589 0.0010377 1e-05
-0.0110111 0.00103903 1e-05
-0.0107632 0.00104036 1e-05
-0.0105252 0.00104163 1e-05
-0.0102873 0.00104291 1e-05
-0.0100493 0.00104419 1e-05
-0.00981133 0.00104547 1e-05
-0.00957337 0.00104675 1e-05
-0.00934491 0.00104797 1e-05
-0.00911645 0.00104919 1e-05
-0.00888799 0.00105041 1e-05
-0.00865954 0.00105163 1e-05
-0.00843108 0.00105285 1e-05
-0.00821175 0.001054 1e-05
-0.00799242 0.00105516 1e-05
-0.00777309 0.00105632 1e-05
-0.00755376 0.00105747 1e-05
-0.00733443 0.00105861 1e-05
-0.00712387 0.0010597 1e-05
-0.0069133 0.0010608 1e-05
-0.00670273 0.00106188 1e-05
-0.00649216 0.00106297 1e-05
-0.0062816 0.00106405 1e-05
-0.00607944 0.00106507 1e-05
-0.00587729 0.0010661 1e-05
-0.00567514 0.00106713 1e-05
-0.00547298 0.00106815 1e-05
-0.00527083 0.00106916 1e-05
-0.00507675 0.00107013 1e-05
-0.00488267 0.00107109 1e-05
-0.0046886 0.00107206 1e-05
-0.00449452 0.00107302 1e-05
-0.00430044 0.00107397 1e-05
-0.00411412 0.00107488 1e-05
-0.0039278 0.00107579 1e-05
-0.00374147 0.0010767 1e-05
-0.00355515 0.00107761 1e-05
-0.00336883 0.00107851 1e-05
-0.00318995 0.00107937 1e-05
-0.00301107 0.00108023 1e-05
-0.00283219 0.00108109 1e-05
-0.00265331 0.00108194 1e-05
-0.00247443 0.0010828 1e-05
-0.0023027 0.00108361 1e-05
-0.00213097 0.00108443 1e-05
-0.00195924 0.00108525 1e-05
-0.0017875 0.00108607 1e-05
-0.00161577 0.00108688 1e-05
-0.0014509 0.00108766 1e-05
-0.00128603 0.00108844 1e-05
-0.00112116 0.00108923 1e-05
-0.000956289 0.00109001 1e-05
-0.000791418 0.0010908 1e-05
-0.000633135 0.00109156 1e-05
-0.000474851 0.00109232 1e-05
-0.000316567 0.00109309 1e-05
-0.000158284 0.00109385 1e-05
0 0.00109462 1e-05
0.000105677 0.00109513 1e-05
0.000211355 0.00109564 1e-05
0.000317032 0.00109615 1e-05
0.00042271 0.00109666 1e-05
0.000528387 0.00109716 1e-05
0.000634886 0.00109766 1e-05
0.000741385 0.00109816 1e-05
0.000847885 0.00109866 1e-05
0.000954384 0.00109916 1e-05
0.00106088 0.00109964 1e-05
0.00116821 0.00110013 1e-05
0.00127554 0.00110062 1e-05
0.00138286 0.00110109 1e-05
0.00149019 0.00110156 1e-05
0.00159752 0.00110202 1e-05
0.00170568 0.00110248 1e-05
0.00181384 0.00110294 1e-05
0.001922 0.00110338 1e-05
0.00203016 0.00110381 1e-05
0.00213833 0.00110424 1e-05
0.00224733 0.00110466 1e-05
0.00235633 0.00110507 1e-05
0.00246533 0.00110547 1e-05
0.00257434 0.00110587 1e-05
0.00268334 0.00110625 1e-05
0.00279319 0.00110663 1e-05
0.00290304 0.001107 1e-05
0.00301289 0.00110737 1e-05
0.00312274 0.00110773 1e-05
0.00323259 0.00110807 1e-05
0.00334329 0.00110841 1e-05
0.003454 0.00110875 1e-05
0.0035647 0.00110908 1e-05
0.0036754 0.0011094 1e-05
0.00378611 0.00110971 1e-05
0.00389767 0.00111001 1e-05
0.00400924 0.00111031 1e-05
0.0041208 0.0011106 1e-05
0.00423237 0.00111088 1e-05
0.00434393 0.00111116 1e-05
0.00445636 0.00111142 1e-05
0.00456879 0.00111168 1e-05
0.00468123 0.00111193 1e-05
0.00479366 0.00111218 1e-05
0.00490609 0.00111242 1e-05
0.0050194 0.00111264 1e-05
0.0051327 0.00111286 1e-05
0.00524601 0.00111308 1e-05
0.00535932 0.00111329 1e-05
0.00547262 0.00111349 1e-05
0.00558681 0.00111367 1e-05
0.005701 0.00111386 1e-05
0.00581518 0.00111404 1e-05
0.00592937 0.00111421 1e-05
0.00604356 0.00111437 1e-05
0.00615863 0.00111452 1e-05
0.00627371 0.00111467 1e-05
0.00638878 0.00111481 1e-05
0.00650386 0.00111494 1e-05
0.00661893 0.00111506 1e-05
0.0067349 0.00111517 1e-05
0.00685087 0.00111528 1e-05
0.00696684 0.00111539 1e-05
0.00708281 0.00111548 1e-05
0.00719878 0.00111556 1e-05
0.00731511 0.00111564 1e-05
0.00743145 0.00111571 1e-05
0.00754779 0.00111577 1e-05
0.00766412 0.00111583 1e-05
0.00777386 0.00111587 1e-05
0.00777571 0.00111587 1e-05
0.00777757 0.00111587 1e-05
0.00777942 0.00111587 1e-05
0.00778128 0.00111587 1e-05
0.00778313 0.00111587 1e-05
0.00790091 0.00111591 1e-05
0.00801869 0.00111594 1e-05
0.00813647 0.00111597 1e-05
0.00825425 0.00111598 1e-05
0.00837203 0.00111599 1e-05
0.00849073 0.00111598 1e-05
0.00860942 0.00111597 1e-05
0.00872812 0.00111595 1e-05
0.00884682 0.00111593 1e-05
0.00896551 0.00111589 1e-05
0.00908513 0.00111584 1e-05
0.00920475 0.00111579 1e-05
0.00932437 0.00111573 1e-05
0.00944398 0.00111566 1e-05
0.0095636 0.00111559 1e-05
0.00968415 0.00111549 1e-05
0.0098047 0.0011154 1e-05
0.00992525 0.00111529 1e-05
0.0100458 0.00111518 1e-05
0.0101663 0.00111506 1e-05
0.0102878 0.00111492 1e-05
0.0104093 0.00111478 1e-05
0.0105308 0.00111463 1e-05
0.0106523 0.00111448 1e-05
0.0107738 0.00111431 1e-05
0.0108962 0.00111412 1e-05
0.0110186 0.00111394 1e-05
0.0111411 0.00111375 1e-05
0.0112635 0.00111354 1e-05
0.0113859 0.00111333 1e-05
0.0115093 0.0011131 1e-05
0.0116327 0.00111286 1e-05
0.0117561 0.00111262 1e-05
0.0118795 0.00111237 1e-05
0.0120028 0.00111212 1e-05
0.0121272 0.00111183 1e-05
0.0122515 0.00111155 1e-05
0.0123759 0.00111126 1e-05
0.0125002 0.00111096 1e-05
0.0126245 0.00111066 1e-05
0.0127498 0.00111032 1e-05
0.0128752 0.00110999 1e-05
0.0130005 0.00110965 1e-05
0.0131258 0.0011093 1e-05
0.0132511 0.00110895 1e-05
0.0133774 0.00110856 1e-05
0.0135036 0.00110818 1e-05
0.0136299 0.00110779 1e-05
0.0137562 0.00110739 1e-05
0.0138825 0.00110698 1e-05
0.0140098 0.00110655 1e-05
0.014137 0.00110612 1e-05
0.0142643 0.00110567 1e-05
0.0143915 0.00110522 1e-05
0.0145188 0.00110476 1e-05
0.0146471 0.00110428 1e-05
0.0147753 0.00110379 1e-05
0.0149036 0.00110329 1e-05
0.0150318 0.00110279 1e-05
0.0151601 0.00110227 1e-05
0.0152893 0.00110173 1e-05
0.0154186 0.00110119 1e-05
0.0155478 0.00110064 1e-05
0.0156771 0.00110008 1e-05
0.0158063 0.00109951 1e-05
0.0159366 0.00109892 1e-05
0.0160668 0.00109833 1e-05
0.0161971 0.00109772 1e-05
0.0163274 0.0010971 1e-05
0.0164576 0.00109648 1e-05
0.0165889 0.00109584 1e-05
0.0167201 0.00109519 1e-05
0.0168514 0.00109453 1e-05
0.0169827 0.00109386 1e-05
0.0171139 0.00109317 1e-05
0.0172462 0.00109249 1e-05
0.0173785 0.00109178 1e-05
0.0175108 0.00109106 1e-05
0.0176431 0.00109033 1e-05
0.0177754 0.00108959 1e-05
0.0179087 0.00108885 1e-05
0.018042 0.00108809 1e-05
0.0181753 0.00108731 1e-05
0.0183087 0.00108653 1e-05
0.018442 0.00108574 1e-05
0.0185763 0.00108494 1e-05
0.0187107 0.00108412 1e-05
0.018845 0.00108329 1e-05
0.0189794 0.00108244 1e-05
0.0191137 0.0010816 1e-05
0.0192491 0.00108075 1e-05
0.0193845 0.00107988 1e-05
0.0195199 0.00107898 1e-05
0.0196553 0.00107808 1e-05
0.0197907 0.00107718 1e-05
0.0199272 0.00107627 1e-05
0.0200636 0.00107535 1e-05
0.0202001 0.0010744 1e-05
0.0203365 0.00107343 1e-05
0.020473 0.00107248 1e-05
0.0206105 0.00107152 1e-05
0.020748 0.00107053 1e-05
0.0208855 0.00106952 1e-05
0.021023 0.0010685 1e-05
0.0211606 0.00106749 1e-05
0.0212991 0.00106648 1e-05
0.0214377 0.00106544 1e-05
0.0215763 0.00106437 1e-05
0.0217149 0.00106329 1e-05
0.0218535 0.00106222 1e-05
0.0219931 0.00106115 1e-05
0.0221328 0.00106005 1e-05
0.0222724 0.00105893 1e-05
0.0224121 0.00105779 1e-05
0.0225517 0.00105666 1e-05
0.0226925 0.00105553 1e-05
0.0228332 0.00105438 1e-05
0.022974 0.00105319 1e-05
0.0231147 0.001052 1e-05
0.0232555 0.00105081 1e-05
0.0233973 0.00104963 1e-05
0.0235391 0.00104841 1e-05
0.023681 0.00104717 1e-05
0.0238228 0.00104591 1e-05
0.0239647 0.00104467 1e-05
0.0241076 0.00104342 1e-05
0.0242505 0.00104215 1e-05
0.0243935 0.00104085 1e-05
0.0245364 0.00103953 1e-05
0.0246794 0.00103823 1e-05
0.0248234 0.00103692 1e-05
0.0249675 0.00103559 1e-05
0.0251115 0.00103422 1e-05
0.0252556 0.00103285 1e-05
[...]
POINT_DATA 12075
 FIELD attributes 1
U 3 12075 float
10.0004 	0.00731841 	0 10.0004 	0.00585473 	0 10.0003 	0.00439104 	0 10.0002 	0.00292736 	0 10.0001 	0.00146368 	0 10 	0 	0
10.0001 	0.000879914 	0 10 	0.000703932 	0 10 	0.000527949 	0 10 	0.000351966 	0 10 	0.000175983 	0 10 	0 	0
10.0001 	0.000467228 	0 10.0001 	0.000373592 	0 10.0001 	0.000279956 	0 10 	0.00018632 	0 10 	9.2684e-05 	0 10 	0 	0
10 	0.000267413 	0 10 	0.00021393 	0 10 	0.000160448 	0 10 	0.000106965 	0 10 	5.34825e-05 	0 10 	0 	0
10 	8.1767e-05 	0 10 	6.54136e-05 	0 10 	4.90602e-05 	0 10 	3.27068e-05 	0 10 	1.63534e-05 	0 10 	0 	0
10 	-2.49813e-05 	0 10 	-1.9985e-05 	0 10 	-1.49888e-05 	0 10 	-9.99252e-06 	0 10 	-4.99626e-06 	0 10 	0 	0
10 	-0.000215243 	0 10 	-0.000172194 	0 10 	-0.000129146 	0 10 	-8.60971e-05 	0 10 	-4.30486e-05 	0 10 	0 	0
10 	-0.000377238 	0 10 	-0.00030179 	0 10 	-0.000226343 	0 10 	-0.000150895 	0 10 	-7.54476e-05 	0 10 	0 	0
9.99999 	-0.00042719 	0 9.99999 	-0.000341752 	0 9.99999 	-0.000256314 	0 10 	-0.000170876 	0 10 	-8.54381e-05 	0 10 	0 	0
9.17387 	0.0870992 	0 9.1308 	0.0696794 	0 9.08741 	0.0522592 	0 9.04368 	0.0348389 	0 8.99962 	0.0174184 	0 8.95524 	0 	0
10.0004 	0.00731841 	0 10.0024 	0.015169 	0 10.0045 	0.0221881 	0 10.0065 	0.029163 	0 10.0085 	0.036094 	0 10.0135 	0.0463094 	0 10.0163 	0.0402089 	0 10.0207 	0.0401677 	0 10.0252 	0.0401267 	0 10.0296 	0.0400859 	0 10.0356 	0.0445467 	0 10.0384 	0.0379069 	0 10.0424 	0.0378634 	0 10.0464 	0.0378198 	0 10.0504 	0.0377762 	0 10.0545 	0.0408776 	0 10.0567 	0.0388007 	0 10.0591 	0.0401104 	0 10.0616 	0.0414218 	0 10.064 	0.0427348 	0 10.0662 	0.0451931 	0 10.0677 	0.0453046 	0 10.069 	0.0465069 	0 10.0703 	0.0477104 	0 10.0717 	0.048915 	0 10.0728 	0.0499333 	0 10.0729 	0.0499966 	0 10.0729 	0.0500599 	0 10.073 	0.0501232 	0 10.0731 	0.0501865 	0 10.0732 	0.0502403 	0 10.0737 	0.0508681 	0 10.0742 	0.0514899 	0 10.0747 	0.0521121 	0 10.0752 	0.0527349 	0 10.0757 	0.0531935 	0 10.0756 	0.0534908 	0 10.0752 	0.0536825 	0 10.0749 	0.0538743 	0 10.0745 	0.0540662 	0 10.074 	0.0540195 	0 10.0736 	0.0541667 	0 10.0725 	0.0541453 	0 10.0714 	0.054124 	0 10.0703 	0.0541026 	0 10.0687 	0.0538119 	0 10.0683 	0.0538953 	0 10.0667 	0.0537647 	0 10.0651 	0.0536341 	0 10.0634 	0.0535034 	0 10.0609 	0.0530863 	0 10.0609 	0.0531447 	0 10.0589 	0.0529542 	0 10.0568 	0.0527636 	0 10.0548 	0.052573 	0 10.0512 	0.0520836 	0 10.0518 	0.0521425 	0 10.0495 	0.0519275 	0 10.0472 	0.0517125 	0 10.0449 	0.0514974 	0 10.0402 	0.0509757 	0 10.0417 	0.0510574 	0 10.0392 	0.0508405 	0 10.0366 	0.0506236 	0 10.0341 	0.0504067 	0 10.0283 	0.0498704 	0 10.0308 	0.0499831 	0 10.0281 	0.0497832 	0 10.0254 	0.0495832 	0 10.0228 	0.0493832 	0 10.0158 	0.0488575 	0 10.0194 	0.0490139 	0 10.0167 	0.048835 	0 10.0139 	0.0486561 	0 10.0112 	0.0484772 	0 10.003 	0.0479557 	0 10.0079 	0.0481603 	0 10.0051 	0.0480482 	0 10.0023 	0.047936 	0 9.99957 	0.0478239 	0 9.99027 	0.0473824 	0 9.99644 	0.0476811 	0 9.9937 	0.047608 	0 9.99096 	0.0475347 	0 9.98823 	0.0474615 	0 9.97772 	0.0470022 	0 9.98528 	0.0473516 	0 9.98266 	0.0474907 	0 9.98004 	0.0476298 	0 9.97742 	0.047769 	0 9.96579 	0.0475883 	0 9.97491 	0.0480904 	1.06443e-21 9.973 	0.048181 	7.07596e-21 9.9711 	0.0482716 	1.30874e-20 9.96919 	0.0483623 	1.90987e-20 9.95717 	0.0479543 	1.61507e-20 9.96765 	0.0482075 	1.12361e-19 9.96603 	0.0479957 	1.0439e-19 9.96441 	0.0477838 	9.64162e-20 9.96278 	0.047572 	8.84393e-20 9.95057 	0.0469264 	-1.78504e-20 9.96097 	0.0468591 	-4.85027e-20 9.95938 	0.0464977 	-5.39488e-20 9.95779 	0.0461362 	-5.93928e-20 9.9562 	0.0457747 	-6.48345e-20 9.9441 	0.0451377 	-2.52199e-20 9.95405 	0.0448638 	-2.22234e-20 9.95222 	0.0442041 	-1.54419e-20 9.95039 	0.0435443 	-8.66105e-21 9.94855 	0.0428844 	-1.88079e-21 9.93652 	0.0420161 	8.48515e-21 9.94605 	0.0416823 	-6.44181e-21 9.94395 	0.040815 	-2.83829e-20 9.94184 	0.0399476 	-5.03266e-20 9.93972 	0.03908 	-7.22728e-20 9.92768 	0.0379277 	-1.03437e-19 9.93667 	0.037698 	-1.47466e-19 9.93419 	0.0368506 	-1.32909e-19 9.93169 	0.0360029 	-1.18342e-19 9.9292 	0.035155 	-1.03766e-19 9.91707 	0.0338771 	-3.51642e-20 9.92538 	0.0337712 	4.22581e-20 9.92247 	0.033007 	5.81835e-20 9.91956 	0.0322426 	7.40976e-20 9.91664 	0.031478 	9.00002e-20 9.90449 	0.0301805 	4.32695e-20 9.91203 	0.0301027 	-5.77779e-20 9.90871 	0.029372 	-6.49768e-20 9.90538 	0.0286409 	-7.21581e-20 9.90204 	0.0279097 	-7.93219e-20 9.88996 	0.0266311 	-3.98535e-22 9.8966 	0.0265111 	7.42638e-20 9.89284 	0.0257888 	6.3263e-20 9.88907 	0.0250661 	5.22447e-20 9.88529 	0.0243432 	4.1209e-20 9.87334 	0.0231211 	-3.30988e-20 9.87891 	0.0229372 	-9.9353e-20 9.87466 	0.0222221 	-1.25479e-19 9.8704 	0.0215068 	-1.51598e-19 9.86614 	0.0207912 	-1.7771e-19 9.85443 	0.019651 	-1.59625e-19 9.85869 	0.0194023 	-1.84512e-19 9.85394 	0.0186988 	-1.69893e-19 9.84918 	0.0179951 	-1.5527e-19 9.84442 	0.017291 	-1.40641e-19 9.83311 	0.0162448 	-9.73094e-20 9.83581 	0.0159397 	-8.20627e-20 9.83056 	0.0152523 	-6.03234e-20 9.8253 	0.0145645 	-3.85862e-20 9.82004 	0.0138765 	-1.68511e-20 9.80937 	0.012924 	2.68498e-21 9.8102 	0.0125547 	0 9.80446 	0.0118771 	0 9.79872 	0.0111992 	0 9.79296 	0.0105209 	0 9.78325 	0.00965631 	0 9.78184 	0.00920815 	-1.89896e-20 9.77562 	0.00853608 	-4.12484e-20 9.7694 	0.00786366 	-6.35093e-20 9.76317 	0.00719091 	-8.57723e-20 9.75477 	0.00641802 	-1.09104e-19 9.75073 	0.00587715 	-1.15562e-19 9.74407 	0.00521393 	-1.16415e-19 9.73741 	0.00455034 	-1.17262e-19 9.73074 	0.00388639 	-1.18103e-19 9.72444 	0.00325977 	-1.1889e-19 9.72433 	0.00324911 	-1.18924e-19 9.72423 	0.00323846 	-1.18958e-19 9.72412 	0.0032278 	-1.18993e-19 9.72401 	0.00321714 	-1.19027e-19 9.7238 	0.00320185 	-1.19026e-19 9.71669 	0.00254133 	-8.49685e-20 9.70947 	0.00187617 	-5.07613e-20 9.70224 	0.00121059 	-1.65657e-20 9.695 	0.00054458 	1.76182e-20 9.6813 	-0.00040964 	5.95126e-20 9.67957 	-0.000812373 	6.06096e-20 9.67191 	-0.00147417 	6.19304e-20 9.66424 	-0.00213643 	6.32485e-20 9.65656 	-0.00279915 	6.45638e-20 9.63623 	-0.00400216 	6.79947e-20 9.63973 	-0.00418048 	5.36696e-20 9.63166 	-0.00483874 	3.9342e-20 9.62357 	-0.00549751 	2.5013e-20 9.61547 	-0.00615678 	1.06825e-20 9.58886 	-0.00756123 	-1.12476e-21 9.59728 	-0.00756183 	-1.0077e-20 9.58881 	-0.00821793 	-2.37519e-20 9.58033 	-0.00887458 	-3.74253e-20 9.57183 	-0.00953177 	-5.10973e-20 9.53946 	-0.0110837 	-6.47858e-20 9.55237 	-0.0109591 	-6.53137e-20 9.54354 	-0.0116152 	-7.39308e-20 9.53469 	-0.0122719 	-8.25439e-20 9.52583 	-0.0129292 	-9.11532e-20 9.48832 	-0.0145717 	-1.12386e-19 9.50522 	-0.0143733 	-1.7215e-19 9.49605 	-0.0150292 	-1.60977e-19 9.48687 	-0.0156857 	-1.49821e-19 9.47767 	-0.0163429 	-1.38681e-19 9.43573 	-0.0180148 	-4.85356e-20 9.45603 	-0.017794 	-3.13901e-20 9.44655 	-0.0184497 	-2.20933e-20 9.43705 	-0.0191062 	-1.27956e-20 9.42754 	-0.0197633 	-3.49683e-21 9.38192 	-0.0214077 	0 9.40503 	-0.0212158 	0 9.39526 	-0.0218732 	0 9.38549 	-0.0225313 	0 9.37569 	-0.0231902 	0 9.32714 	-0.0247545 	0 9.35246 	-0.0246428 	2.15389e-21 9.34244 	-0.0253026 	1.07887e-20 9.33241 	-0.0259632 	1.94224e-20 9.32237 	-0.0266246 	2.80552e-20 9.27162 	-0.0280549 	4.8683e-20 9.29858 	-0.0280715 	1.83394e-19 9.28834 	-0.0287328 	1.86844e-19 9.27809 	-0.0293949 	1.90311e-19 9.26781 	-0.0300578 	1.93797e-19 9.21557 	-0.0313019 	4.89081e-20 9.24365 	-0.031488 	2.6488e-20 9.23321 	-0.0321494 	1.87357e-20 9.22275 	-0.0328117 	1.09822e-20 9.21102 	-0.0334852 	3.95679e-21 9.15919 	-0.0344883 	2.01121e-20 9.18515 	-0.034897 	1.2263e-19 9.17728 	-0.035539 	1.31698e-19 9.16665 	-0.0362006 	1.33193e-19 9.15082 	-0.0368733 	1.18734e-19 9.10264 	-0.0376108 	4.5785e-21 9.12527 	-0.0382379 	-1.16666e-19 9.1208 	-0.0388917 	-1.49246e-19 9.11002 	-0.0395523 	-1.61206e-19 9.09081 	-0.0401725 	-1.5062e-19 9.04609 	-0.0406684 	-7.16148e-20 9.0656 	-0.0414912 	-2.08845e-19 9.06398 	-0.0422001 	-2.5262e-19 9.05307 	-0.0428594 	-2.55359e-19 9.03115 	-0.0433822 	-2.03594e-19 8.98968 	-0.0436617 	-5.49868e-20 9.00632 	-0.0446574 	-2.89282e-20 9.00704 	-0.0454585 	-1.29743e-20 8.99602 	-0.0461163 	-4.46833e-21 8.97199 	-0.0465039 	0 8.93356 	-0.0465921 	0 8.94755 	-0.0477381 	0 8.95015 	-0.0486621 	0 8.93905 	-0.0493183 	0 8.91345 	-0.0495401 	2.29035e-21 8.87784 	-0.0494617 	6.16228e-21 8.88942 	-0.0507369 	2.47381e-21 8.8935 	-0.0518083 	0 8.88233 	-0.0524629 	0 8.85564 	-0.0524949 	2.75499e-21 8.82262 	-0.0522733 	6.63201e-21 8.83203 	-0.0536571 	2.94317e-21 8.83724 	-0.0548942 	1.55259e-21 8.82603 	-0.0555472 	9.23893e-21 8.79865 	-0.0553727 	2.85133e-20 8.76801 	-0.0550307 	5.01298e-20 8.77545 	-0.0565052 	1.97102e-19 8.78149 	-0.0579217 	3.33775e-19 8.77025 	-0.058574 	3.37917e-19 8.74255 	-0.0581822 	1.9771e-19 8.71409 	-0.0577413 	5.07497e-20 8.71976 	-0.0592907 	2.94545e-20 8.72537 	-0.0608417 	8.16083e-21 8.71391 	-0.0614524 	3.0101e-22 8.68742 	-0.0609298 	4.02166e-21 8.66093 	-0.0604068 	7.74212e-21 8.66502 	-0.062011 	4.21502e-21 8.66904 	-0.0636169 	6.88936e-22 8.65798 	-0.0641968 	2.62386e-21 8.63329 	-0.0636138 	-1.93084e-21 8.60861 	-0.0630304 	-6.4844e-21 8.61128 	-0.0646815 	-5.72965e-20 8.6139 	-0.0663342 	-1.08113e-19 8.60328 	-0.066885 	-1.09697e-19 8.58022 	-0.0662534 	-6.32275e-20 8.55717 	-0.0656214 	-1.67558e-20 8.5586 	-0.0673109 	9.9037e-20 8.55998 	-0.0690021 	2.14823e-19 8.54983 	-0.0695241 	2.24767e-19 8.52824 	-0.0688528 	1.2829e-19 8.50668 	-0.0681811 	3.18128e-20 8.50702 	-0.0698963 	1.84882e-20 8.50731 	-0.0716132 	5.15918e-21 8.49766 	-0.0721083 	5.32385e-22 8.47739 	-0.071413 	5.97e-21 8.45715 	-0.0707173 	1.14096e-20 8.45654 	-0.0724465 	4.86348e-21 8.45587 	-0.0741774 	-1.68903e-21 8.44674 	-0.0746475 	-2.41528e-20 8.42766 	-0.0739433 	-8.25309e-20 8.4086 	-0.0732385 	-1.40912e-19 8.40716 	-0.0749658 	-2.93521e-19 8.40565 	-0.0766947 	-4.46124e-19 8.39705 	-0.0771416 	-4.2821e-19 8.37904 	-0.0764464 	-2.5327e-19 8.36106 	-0.0757507 	-7.83303e-20 8.35887 	-0.0774709 	6.62916e-20 8.3565 	-0.079165 	2.0785e-19 8.3481 	-0.0795617 	2.04993e-19 8.33153 	-0.0789425 	1.0547e-19 8.31451 	-0.0782652 	4.57996e-22 8.31167 	-0.0799747 	-1.03689e-19 8.30791 	-0.0814721 	-1.92554e-19 8.29964 	-0.0818784 	-2.03255e-19 8.28511 	-0.0814435 	-1.33551e-19 8.26897 	-0.0807916 	-4.31292e-20 8.26555 	-0.0824886 	-3.01042e-20 8.26066 	-0.0837921 	-1.71942e-20 8.25252 	-0.0842098 	-4.53654e-21 8.23976 	-0.0839608 	1.53689e-20 8.22442 	-0.0833391 	3.93252e-20 8.22049 	-0.0850228 	1.38774e-20 8.21469 	-0.0861371 	-3.05416e-21 8.20668 	-0.0865679 	-9.77034e-21 8.19545 	-0.0865043 	-4.77804e-21 8.18084 	-0.0859166 	1.26202e-20 8.17646 	-0.0875869 	-6.74179e-21 8.16995 	-0.0885183 	-1.88769e-20 8.16205 	-0.0889635 	-2.62595e-20 8.15216 	-0.0890832 	-3.94383e-20 8.13821 	-0.0885323 	-6.45407e-20 8.13342 	-0.0901898 	6.12343e-20 8.12637 	-0.0909452 	9.41867e-20 8.11858 	-0.0914063 	9.68398e-20 8.10985 	-0.0917062 	8.11709e-20 8.0965 	-0.0911943 	-2.65154e-20 8.09135 	-0.0928399 	7.95547e-20 8.08391 	-0.093427 	9.26476e-20 8.07621 	-0.0939054 	9.61575e-20 8.06848 	-0.094382 	9.94508e-20 8.05568 	-0.0939108 	1.12072e-20 8.05008 	-0.0954757 	-7.1956e-22 8.0425 	-0.0959723 	-4.92125e-22 8.03489 	-0.0964693 	-2.64718e-22 8.02726 	-0.0969665 	-3.73381e-23 8.01573 	-0.0966895 	1.92499e-20 8.0096 	-0.098073 	0 8.00209 	-0.0985895 	0 7.99457 	-0.0991062 	0 7.98703 	-0.0996233 	0 7.97661 	-0.0995384 	1.54741e-20 7.97007 	-0.100749 	0 7.96265 	-0.101286 	0 7.9552 	-0.101824 	0 7.94772 	-0.102362 	0 7.93829 	-0.102465 	0 7.93146 	-0.103511 	0 7.92409 	-0.104071 	0 7.91671 	-0.104631 	0 7.9093 	-0.105192 	0 7.90072 	-0.105478 	-7.17089e-21 7.89369 	-0.106367 	0 7.88638 	-0.10695 	0 7.87906 	-0.107533 	0 7.87171 	-0.108117 	0 7.86386 	-0.108584 	-6.33601e-21 7.85828 	-0.109191 	0 7.8526 	-0.109668 	0 7.8469 	-0.110144 	0 7.84119 	-0.110621 	0 7.83567 	-0.111081 	0 7.83399 	-0.111217 	0 7.83232 	-0.111352 	0 7.83065 	-0.111488 	0 7.82897 	-0.111623 	0 7.82749 	-0.111721 	0 7.82001 	-0.112391 	-1.05901e-20 7.81258 	-0.113026 	-2.16441e-20 7.80513 	-0.113663 	-3.26963e-20 7.79765 	-0.114299 	-4.37466e-20 7.79119 	-0.114733 	-5.48063e-20 7.78342 	-0.115579 	-5.14233e-20 7.77602 	-0.116242 	-5.06338e-20 7.7686 	-0.116905 	-4.98405e-20 7.76115 	-0.117569 	-4.90433e-20 7.75556 	-0.11787 	-5.30326e-20 7.74749 	-0.11889 	-4.10418e-20 7.74012 	-0.119581 	-2.90277e-20 7.73271 	-0.120273 	-1.70115e-20 7.72528 	-0.120966 	-4.99335e-21 7.72053 	-0.121141 	0 7.71217 	-0.12233 	-2.01392e-21 7.70481 	-0.123051 	-7.45346e-21 7.69742 	-0.123773 	-1.2892e-20 7.69 	-0.124495 	-1.83294e-20 7.68607 	-0.124552 	-2.37358e-20 7.67739 	-0.125906 	-6.02969e-20 7.67004 	-0.126659 	-8.28335e-20 7.66266 	-0.127412 	-1.05372e-19 7.65525 	-0.128165 	-1.27913e-19 7.65211 	-0.128111 	-1.1084e-19 7.64318 	-0.129599 	-8.21309e-20 7.63577 	-0.130414 	-6.86544e-20 7.62838 	-0.131201 	-5.58185e-20 7.62166 	-0.131861 	-4.92719e-20 7.61862 	-0.13183 	-7.68072e-20 7.60971 	-0.133335 	-9.26334e-20 7.60194 	-0.134329 	-8.10157e-20 7.59455 	-0.135151 	-6.01206e-20 7.58865 	-0.135691 	-3.33011e-20 7.58553 	-0.135716 	4.39646e-21 7.57663 	-0.137239 	9.20366e-21 7.56852 	-0.138408 	8.38291e-21 7.56111 	-0.139266 	2.58959e-21 7.55601 	-0.139693 	0 7.5528 	-0.139773 	0 7.5439 	-0.141315 	0 7.53544 	-0.142657 	0 7.528 	-0.143551 	0 7.52369 	-0.143871 	0 7.52038 	-0.144007 	0 7.51148 	-0.14557 	0 7.50265 	-0.147081 	-1.65644e-21 7.49517 	-0.148013 	-2.15646e-20 7.49162 	-0.148232 	-4.15585e-20 7.48821 	-0.148425 	-6.1555e-20 7.47929 	-0.150011 	-3.97861e-20 7.47032 	-0.151597 	-1.80089e-20 7.46329 	-0.152533 	3.89348e-21 7.45978 	-0.152783 	8.4837e-21 7.45625 	-0.153033 	1.30737e-20 7.44731 	-0.154644 	4.95685e-20 7.43831 	-0.156255 	8.60611e-20 7.43172 	-0.157222 	9.84332e-20 7.42809 	-0.15753 	8.17093e-20 7.42444 	-0.157838 	6.49824e-20 7.41547 	-0.159475 	3.7776e-20 7.40644 	-0.161113 	1.05588e-20 7.40028 	-0.162114 	6.40428e-21 7.39651 	-0.16248 	1.68682e-20 7.39273 	-0.162846 	2.73336e-20 7.38372 	-0.164512 	9.83111e-20 7.37465 	-0.166179 	1.69293e-19 7.36889 	-0.167215 	1.70112e-19 7.36498 	-0.16764 	9.99483e-20 7.36106 	-0.168064 	2.9783e-20 7.352 	-0.16976 	2.03207e-20 7.34315 	-0.171412 	1.15583e-20 7.3377 	-0.172458 	1.21455e-20 7.33346 	-0.173014 	2.10897e-20 7.32938 	-0.173497 	3.12756e-20 7.32027 	-0.175225 	1.00385e-19 7.31222 	-0.176759 	1.47583e-19 7.30665 	-0.177851 	1.44821e-19 7.30189 	-0.178607 	1.02103e-19 7.29765 	-0.179148 	3.38444e-20 7.28847 	-0.180909 	2.46958e-20 7.2812 	-0.182331 	1.54532e-20 7.2755 	-0.183469 	6.13223e-21 7.27022 	-0.184424 	0 7.26581 	-0.185024 	0 7.25656 	-0.186819 	0 7.25003 	-0.188132 	0 7.24419 	-0.189318 	0 7.2384 	-0.190469 	0 7.23379 	-0.191128 	0 7.22461 	-0.192933 	0 7.21866 	-0.194167 	0 7.21267 	-0.195401 	0 7.20664 	-0.196634 	0 7.20157 	-0.197464 	1.37487e-20 7.19315 	-0.199156 	2.88473e-21 7.18705 	-0.200438 	1.24891e-20 7.18089 	-0.20172 	2.20965e-20 7.1747 	-0.203002 	3.17071e-20 7.16907 	-0.204036 	4.3599e-20 7.1614 	-0.205617 	8.77906e-20 7.15512 	-0.206947 	9.22337e-20 7.1488 	-0.208278 	9.66471e-20 7.14244 	-0.209608 	1.0103e-19 7.13625 	-0.210845 	8.26466e-20 7.13178 	-0.211785 	9.65691e-20 7.12783 	-0.21263 	8.81286e-20 7.12386 	-0.213476 	7.96767e-20 7.11988 	-0.214321 	7.12133e-20 7.11604 	-0.215132 	6.30898e-20 7.1134 	-0.215671 	5.80351e-20 7.11074 	-0.21621 	5.29766e-20 7.10808 	-0.21675 	4.79143e-20 7.10541 	-0.217289 	4.28482e-20 7.10322 	-0.217774 	4.36378e-20 7.09615 	-0.219254 	4.16191e-20 7.0893 	-0.220679 	4.00865e-20 7.0824 	-0.222105 	3.85467e-20 7.07545 	-0.22353 	3.69996e-20 7.0702 	-0.224764 	4.11747e-20 7.06221 	-0.226431 	3.45774e-20 7.05515 	-0.227906 	3.34495e-20 7.04805 	-0.229382 	3.23142e-20 7.04089 	-0.230857 	3.11715e-20 7.03671 	-0.232006 	4.27871e-20 7.02777 	-0.233858 	5.43841e-20 7.0205 	-0.235383 	4.73484e-20 7.01318 	-0.236908 	4.03238e-20 7.00584 	-0.238429 	3.31211e-20 7.0027 	-0.239496 	4.07744e-21 6.99311 	-0.241474 	2.92087e-22 6.98529 	-0.243108 	-1.83037e-22 6.97773 	-0.244681 	-7.40025e-23 6.9715 	-0.24611 	0 6.96812 	-0.247233 	0 6.9583 	-0.249253 	0 6.94946 	-0.251078 	-7.23029e-21 6.94167 	-0.2527 	-2.2101e-20 6.93655 	-0.254038 	-3.43214e-20 6.93291 	-0.255217 	-4.50616e-20 6.92285 	-0.257278 	-3.15979e-20 6.91296 	-0.259296 	-1.77575e-20 6.90491 	-0.260966 	-9.47816e-22 6.90092 	-0.262213 	7.26991e-21 6.89701 	-0.263447 	1.52261e-20 6.8867 	-0.265551 	8.46172e-21 6.87633 	-0.267654 	1.70277e-21 6.86871 	-0.269347 	1.30491e-20 6.86456 	-0.270635 	3.59159e-20 6.86036 	-0.271922 	5.87823e-20 6.84981 	-0.274067 	3.47565e-20 6.83917 	-0.276211 	1.07255e-20 6.83186 	-0.277959 	-2.42289e-21 6.82742 	-0.279298 	-6.04665e-21 6.82293 	-0.280636 	-9.67237e-21 6.8121 	-0.282822 	-6.55542e-20 6.80122 	-0.285004 	-1.21082e-19 6.79439 	-0.286772 	-1.29e-19 6.78944 	-0.288196 	-9.00996e-20 6.78464 	-0.289585 	-4.63041e-20 6.77353 	-0.291809 	-9.10732e-20 6.76388 	-0.29388 	-1.16838e-19 6.75675 	-0.295692 	-1.10475e-19 6.75057 	-0.297325 	-8.49102e-20 6.74545 	-0.298761 	-3.83013e-20 6.73405 	-0.301023 	-8.53253e-20 6.72563 	-0.302982 	-8.94336e-20 6.71819 	-0.304836 	-7.8847e-20 6.71076 	-0.306678 	-6.68436e-20 6.7053 	-0.30816 	-1.39883e-20 6.69412 	-0.310407 	-1.10265e-20 6.68642 	-0.312303 	-7.80679e-21 6.67866 	-0.314198 	-4.58925e-21 6.67084 	-0.316092 	-1.37388e-21 6.66415 	-0.317776 	0 6.65424 	-0.319903 	0 6.64621 	-0.321837 	0 6.63812 	-0.323771 	0 6.62996 	-0.325705 	0 6.62193 	-0.327604 	0 6.62 	-0.328017 	-3.95047e-22 6.61839 	-0.3284 	-1.06269e-21 6.61677 	-0.328782 	-1.7304e-21 6.61516 	-0.329164 	-2.39819e-21 6.61356 	-0.329541 	-3.05632e-21 6.60642 	-0.331126 	-5.36453e-21 6.59923 	-0.332712 	-7.67127e-21 6.59199 	-0.334297 	-9.97655e-21 6.58471 	-0.335882 	-1.22804e-20 6.57827 	-0.337349 	-1.45242e-20 6.5687 	-0.339482 	-5.26941e-22 6.55945 	-0.341482 	2.57945e-21 6.55014 	-0.343482 	5.7086e-21 6.54074 	-0.345481 	8.86063e-21 6.53332 	-0.347215 	-1.81464e-20 6.52281 	-0.349548 	-9.48625e-21 6.51317 	-0.351579 	-6.01541e-22 6.50345 	-0.35361 	8.28087e-21 6.49432 	-0.355555 	1.6196e-20 6.48701 	-0.357258 	2.13606e-20 6.47607 	-0.359623 	1.49368e-20 6.46547 	-0.36185 	1.20034e-20 6.45534 	-0.363909 	1.33491e-20 6.44701 	-0.36573 	2.43625e-20 6.4393 	-0.367465 	3.892e-20 6.42792 	-0.369851 	4.70105e-20 6.41645 	-0.372237 	5.5098e-20 6.4063 	-0.374297 	4.9744e-20 6.39824 	-0.376059 	2.59292e-20 6.39012 	-0.377822 	2.1014e-21 6.3783 	-0.380228 	2.27914e-20 6.36638 	-0.382633 	4.34706e-20 6.35646 	-0.384743 	4.05008e-20 6.34797 	-0.38653 	9.67115e-21 6.33942 	-0.388317 	-2.11681e-20 6.32714 	-0.390739 	-1.35694e-20 6.31536 	-0.393088 	-5.35283e-21 6.3055 	-0.395194 	4.9515e-21 6.29614 	-0.397127 	9.75307e-21 6.28714 	-0.398934 	1.0549e-20 6.27439 	-0.40137 	1.22774e-20 6.26352 	-0.403567 	1.36336e-20 6.2532 	-0.405687 	1.48753e-20 6.2428 	-0.407805 	1.61257e-20 6.23324 	-0.409658 	2.1403e-20 6.22078 	-0.412009 	1.69523e-20 6.21008 	-0.414138 	1.24922e-20 6.19929 	-0.416267 	8.03668e-21 6.18842 	-0.418395 	3.58582e-21 6.17766 	-0.420465 	0 6.17431 	-0.42108 	0 6.17135 	-0.421648 	0 6.16839 	-0.422215 	0 6.16542 	-0.422783 	0 6.1625 	-0.423339 	0 6.15461 	-0.42491 	0 6.14667 	-0.426481 	0 6.13869 	-0.428052 	0 6.13066 	-0.429622 	0 6.12268 	-0.431062 	-4.20605e-21 6.11199 	-0.433359 	1.83954e-21 6.1008 	-0.435496 	5.65483e-21 6.08953 	-0.437631 	9.46608e-21 6.07817 	-0.439766 	1.32733e-20 6.06691 	-0.441591 	2.65772e-20 6.05613 	-0.444028 	4.92248e-20 6.04465 	-0.446234 	5.74687e-20 6.03287 	-0.448362 	6.08947e-20 6.02112 	-0.450316 	5.20651e-20 6.00936 	-0.452123 	3.28499e-20 5.99808 	-0.454545 	3.53599e-20 5.98669 	-0.456965 	3.78766e-20 5.97445 	-0.459043 	3.032e-20 5.96226 	-0.460836 	1.21656e-20 5.94998 	-0.462629 	-5.99009e-21 5.93818 	-0.46503 	-3.53254e-20 5.92628 	-0.467429 	-6.4653e-20 5.91427 	-0.469537 	-7.12323e-20 5.90155 	-0.471311 	-4.75313e-20 5.88874 	-0.473084 	-2.38276e-20 5.87641 	-0.475458 	1.38182e-20 5.86404 	-0.477715 	3.53864e-20 5.85168 	-0.479768 	2.85064e-20 5.83895 	-0.481715 	9.09934e-21 5.8256 	-0.483463