# vtk DataFile Version 2.0
track0
ASCII
DATASET POLYDATA
POINTS 12075 float
-0.0205 0.001 1e-05
-0.02052 0.000999985 1e-05
-0.02054 0.000999974 1e-05
-0.02056 0.000999965 1e-05
-0.02058 0.000999959 1e-05
-0.0206 0.000999956 1e-05
-0.0205 0.00367778 1e-05
-0.02052 0.00367778 1e-05
-0.02054 0.00367777 1e-05
-0.02056 0.00367777 1e-05
-0.02058 0.00367777 1e-05
-0.0206 0.00367777 1e-05
-0.0205 0.00635556 1e-05
-0.02052 0.00635555 1e-05
-0.02054 0.00635555 1e-05
-0.02056 0.00635555 1e-05
-0.02058 0.00635555 1e-05
-0.0206 0.00635555 1e-05
-0.0205 0.00903333 1e-05
-0.02052 0.00903333 1e-05
-0.02054 0.00903333 1e-05
-0.02056 0.00903333 1e-05
-0.02058 0.00903333 1e-05
-0.0206 0.00903333 1e-05
-0.0205 0.0117111 1e-05
-0.02052 0.0117111 1e-05
-0.02054 0.0117111 1e-05
-0.02056 0.0117111 1e-05
-0.02058 0.0117111 1e-05
-0.0206 0.0117111 1e-05
-0.0205 0.0143889 1e-05
-0.02052 0.0143889 1e-05
-0.02054 0.0143889 1e-05
-0.02056 0.0143889 1e-05
-0.02058 0.0143889 1e-05
-0.0206 0.0143889 1e-05
-0.0205 0.0170667 1e-05
-0.02052 0.0170667 1e-05
-0.02054 0.0170667 1e-05
-0.02056 0.0170667 1e-05
-0.02058 0.0170667 1e-05
-0.0206 0.0170667 1e-05
-0.0205 0.0197444 1e-05
-0.02052 0.0197444 1e-05
-0.02054 0.0197444 1e-05
-0.02056 0.0197444 1e-05
-0.02058 0.0197444 1e-05
-0.0206 0.0197444 1e-05
-0.0205 0.0224222 1e-05
-0.02052 0.0224222 1e-05
-0.02054 0.0224222 1e-05
-0.02056 0.0224222 1e-05
-0.02058 0.0224222 1e-05
-0.0206 0.0224222 1e-05
-0.0205 0.0251 1e-05
-0.02052 0.0250998 1e-05
-0.02054 0.0250997 1e-05
-0.02056 0.0250995 1e-05
-0.02058 0.0250995 1e-05
-0.0206 0.0250994 1e-05
-0.0205 0.001 1e-05
-0.0202034 0.00100022 1e-05
-0.0199069 0.00100067 1e-05
-0.0196103 0.00100132 1e-05
-0.0193137 0.00100219 1e-05
-0.0190172 0.00100326 1e-05
-0.0187132 0.00100466 1e-05
-0.0184093 0.00100588 1e-05
-0.0181054 0.0010071 1e-05
-0.0178015 0.00100832 1e-05
-0.0174976 0.00100953 1e-05
-0.0172058 0.00101083 1e-05
-0.016914 0.00101193 1e-05
-0.0166222 0.00101303 1e-05
-0.0163305 0.00101413 1e-05
-0.0160387 0.00101523 1e-05
-0.0157586 0.00101636 1e-05
-0.0154784 0.00101745 1e-05
-0.0151983 0.00101856 1e-05
-0.0149182 0.00101972 1e-05
-0.0146381 0.0010209 1e-05
-0.0143747 0.00102209 1e-05
-0.0141113 0.00102327 1e-05
-0.0138479 0.00102449 1e-05
-0.0135846 0.00102574 1e-05
-0.0133621 0.00102682 1e-05
-0.0133484 0.00102689 1e-05
-0.0133346 0.00102695 1e-05
-0.0133209 0.00102702 1e-05
-0.0133072 0.00102709 1e-05
-0.0132934 0.00102716 1e-05
-0.0130353 0.00102845 1e-05
-0.0127771 0.00102975 1e-05
-0.0125189 0.00103107 1e-05
-0.0122607 0.0010324 1e-05
-0.0120025 0.00103376 1e-05
-0.0117547 0.00103506 1e-05
-0.0115068 0.00103638 1e-05
-0.0112589 0.0010377 1e-05
-0.0110111 0.00103903 1e-05
-0.0107632 0.00104036 1e-05
-0.0105252 0.00104163 1e-05
-0.0102873 0.00104291 1e-05
-0.0100493 0.00104419 1e-05
-0.00981133 0.00104547 1e-05
-0.00957337 0.00104675 1e-05
-0.00934491 0.00104797 1e-05
-0.00911645 0.00104919 1e-05
-0.00888799 0.00105041 1e-05
-0.00865954 0.00105163 1e-05
-0.00843108 0.00105285 1e-05
-0.00821175 0.001054 1e-05
-0.00799242 0.00105516 1e-05
-0.00777309 0.00105632 1e-05
-0.00755376 0.00105747 1e-05
-0.00733443 0.00105861 1e-05
-0.00712387 0.0010597 1e-05
-0.0069133 0.0010608 1e-05
-0.00670273 0.00106188 1e-05
-0.00649216 0.00106297 1e-05
-0.0062816 0.00106405 1e-05
-0.00607944 0.00106507 1e-05
-0.00587729 0.0010661 1e-05
-0.00567514 0.00106713 1e-05
-0.00547298 0.00106815 1e-05
-0.00527083 0.00106916 1e-05
-0.00507675 0.00107013 1e-05
-0.00488267 0.00107109 1e-05
-0.0046886 0.00107206 1e-05
-0.00449452 0.00107302 1e-05
-0.00430044 0.00107397 1e-05
-0.00411412 0.00107488 1e-05
-0.0039278 0.00107579 1e-05
-0.00374147 0.0010767 1e-05
-0.00355515 0.00107761 1e-05
-0.00336883 0.00107851 1e-05
-0.00318995 0.00107937 1e-05
-0.00301107 0.00108023 1e-05
-0.00283219 0.00108109 1e-05
-0.00265331 0.00108194 1e-05
-0.00247443 0.0010828 1e-05
-0.0023027 0.00108361 1e-05
-0.00213097 0.00108443 1e-05
-0.00195924 0.00108525 1e-05
-0.0017875 0.00108607 1e-05
-0.00161577 0.00108688 1e-05
-0.0014509 0.00108766 1e-05
-0.00128603 0.00108844 1e-05
-0.00112116 0.00108923 1e-05
-0.000956289 0.00109001 1e-05
-0.000791418 0.0010908 1e-05
-0.000633135 0.00109156 1e-05
-0.000474851 0.00109232 1e-05
-0.000316567 0.00109309 1e-05
-0.000158284 0.00109385 1e-05
0 0.00109462 1e-05
0.000105677 0.00109513 1e-05
0.000211355 0.00109564 1e-05
0.000317032 0.00109615 1e-05
0.00042271 0.00109666 1e-05
0.000528387 0.00109716 1e-05
0.000634886 0.00109766 1e-05
0.000741385 0.00109816 1e-05
0.000847885 0.00109866 1e-05
0.000954384 0.00109916 1e-05
0.00106088 0.00109964 1e-05
0.00116821 0.00110013 1e-05
0.00127554 0.00110062 1e-05
0.00138286 0.00110109 1e-05
0.00149019 0.00110156 1e-05
0.00159752 0.00110202 1e-05
0.00170568 0.00110248 1e-05
0.00181384 0.00110294 1e-05
0.001922 0.00110338 1e-05
0.00203016 0.00110381 1e-05
0.00213833 0.00110424 1e-05
0.00224733 0.00110466 1e-05
0.00235633 0.00110507 1e-05
0.00246533 0.00110547 1e-05
0.00257434 0.00110587 1e-05
0.00268334 0.00110625 1e-05
0.00279319 0.00110663 1e-05
0.00290304 0.001107 1e-05
0.00301289 0.00110737 1e-05
0.00312274 0.00110773 1e-05
0.00323259 0.00110807 1e-05
0.00334329 0.00110841 1e-05
0.003454 0.00110875 1e-05
0.0035647 0.00110908 1e-05
0.0036754 0.0011094 1e-05
0.00378611 0.00110971 1e-05
0.00389767 0.00111001 1e-05
0.00400924 0.00111031 1e-05
0.0041208 0.0011106 1e-05
0.00423237 0.00111088 1e-05
0.00434393 0.00111116 1e-05
0.00445636 0.00111142 1e-05
0.00456879 0.00111168 1e-05
0.00468123 0.00111193 1e-05
0.00479366 0.00111218 1e-05
0.00490609 0.00111242 1e-05
0.0050194 0.00111264 1e-05
0.0051327 0.00111286 1e-05
0.00524601 0.00111308 1e-05
0.00535932 0.00111329 1e-05
0.00547262 0.00111349 1e-05
0.00558681 0.00111367 1e-05
0.005701 0.00111386 1e-05
0.00581518 0.00111404 1e-05
0.00592937 0.00111421 1e-05
0.00604356 0.00111437 1e-05
0.00615863 0.00111452 1e-05
0.00627371 0.00111467 1e-05
0.00638878 0.00111481 1e-05
0.00650386 0.00111494 1e-05
0.00661893 0.00111506 1e-05
0.0067349 0.00111517 1e-05
0.00685087 0.00111528 1e-05
0.00696684 0.00111539 1e-05
0.00708281 0.00111548 1e-05
0.00719878 0.00111556 1e-05
0.00731511 0.00111564 1e-05
0.00743145 0.00111571 1e-05
0.00754779 0.00111577 1e-05
0.00766412 0.00111583 1e-05
0.00777386 0.00111587 1e-05
0.00777571 0.00111587 1e-05
0.00777757 0.00111587 1e-05
0.00777942 0.00111587 1e-05
0.00778128 0.00111587 1e-05
0.00778313 0.00111587 1e-05
0.00790091 0.00111591 1e-05
0.00801869 0.00111594 1e-05
0.00813647 0.00111597 1e-05
0.00825425 0.00111598 1e-05
0.00837203 0.00111599 1e-05
0.00849073 0.00111598 1e-05
0.00860942 0.00111597 1e-05
0.00872812 0.00111595 1e-05
0.00884682 0.00111593 1e-05
0.00896551 0.00111589 1e-05
0.00908513 0.00111584 1e-05
0.00920475 0.00111579 1e-05
0.00932437 0.00111573 1e-05
0.00944398 0.00111566 1e-05
0.0095636 0.00111559 1e-05
0.00968415 0.00111549 1e-05
0.0098047 0.0011154 1e-05
0.00992525 0.00111529 1e-05
0.0100458 0.00111518 1e-05
0.0101663 0.00111506 1e-05
0.0102878 0.00111492 1e-05
0.0104093 0.00111478 1e-05
0.0105308 0.00111463 1e-05
0.0106523 0.00111448 1e-05
0.0107738 0.00111431 1e-05
0.0108962 0.00111412 1e-05
0.0110186 0.00111394 1e-05
0.0111411 0.00111375 1e-05
0.0112635 0.00111354 1e-05
0.0113859 0.00111333 1e-05
0.0115093 0.0011131 1e-05
0.0116327 0.00111286 1e-05
0.0117561 0.00111262 1e-05
0.0118795 0.00111237 1e-05
0.0120028 0.00111212 1e-05
0.0121272 0.00111183 1e-05
0.0122515 0.00111155 1e-05
0.0123759 0.00111126 1e-05
0.0125002 0.00111096 1e-05
0.0126245 0.00111066 1e-05
0.0127498 0.00111032 1e-05
0.0128752 0.00110999 1e-05
0.0130005 0.00110965 1e-05
0.0131258 0.0011093 1e-05
0.0132511 0.00110895 1e-05
0.0133774 0.00110856 1e-05
0.0135036 0.00110818 1e-05
0.0136299 0.00110779 1e-05
0.0137562 0.00110739 1e-05
0.0138825 0.00110698 1e-05
0.0140098 0.00110655 1e-05
0.014137 0.00110612 1e-05
0.0142643 0.00110567 1e-05
0.0143915 0.00110522 1e-05
0.0145188 0.00110476 1e-05
0.0146471 0.00110428 1e-05
0.0147753 0.00110379 1e-05
0.0149036 0.00110329 1e-05
0.0150318 0.00110279 1e-05
0.0151601 0.00110227 1e-05
0.0152893 0.00110173 1e-05
0.0154186 0.00110119 1e-05
0.0155478 0.00110064 1e-05
0.0156771 0.00110008 1e-05
0.0158063 0.00109951 1e-05
0.0159366 0.00109892 1e-05
0.0160668 0.00109833 1e-05
0.0161971 0.00109772 1e-05
0.0163274 0.0010971 1e-05
0.0164576 0.00109648 1e-05
0.0165889 0.00109584 1e-05
0.0167201 0.00109519 1e-05
0.0168514 0.00109453 1e-05
0.0169827 0.00109386 1e-05
0.0171139 0.00109317 1e-05
0.0172462 0.00109249 1e-05
0.0173785 0.00109178 1e-05
0.0175108 0.00109106 1e-05
0.0176431 0.00109033 1e-05
0.0177754 0.00108959 1e-05
0.0179087 0.00108885 1e-05
0.018042 0.00108809 1e-05
0.0181753 0.00108731 1e-05
0.0183087 0.00108653 1e-05
0.018442 0.00108574 1e-05
0.0185763 0.00108494 1e-05
0.0187107 0.00108412 1e-05
0.018845 0.00108329 1e-05
0.0189794 0.00108244 1e-05
0.0191137 0.0010816 1e-05
0.0192491 0.00108075 1e-05
0.0193845 0.00107988 1e-05
0.0195199 0.00107898 1e-05
0.0196553 0.00107808 1e-05
0.0197907 0.00107718 1e-05
0.0199272 0.00107627 1e-05
0.0200636 0.00107535 1e-05
0.0202001 0.0010744 1e-05
0.0203365 0.00107343 1e-05
0.020473 0.00107248 1e-05
0.0206105 0.00107152 1e-05
0.020748 0.00107053 1e-05
0.0208855 0.00106952 1e-05
0.021023 0.0010685 1e-05
0.0211606 0.00106749 1e-05
0.0212991 0.00106648 1e-05
0.0214377 0.00106544 1e-05
0.0215763 0.00106437 1e-05
0.0217149 0.00106329 1e-05
0.0218535 0.00106222 1e-05
0.0219931 0.00106115 1e-05
0.0221328 0.00106005 1e-05
0.0222724 0.00105893 1e-05
0.0224121 0.00105779 1e-05
0.0225517 0.00105666 1e-05
0.0226925 0.00105553 1e-05
0.0228332 0.00105438 1e-05
0.022974 0.00105319 1e-05
0.0231147 0.001052 1e-05
0.0232555 0.00105081 1e-05
0.0233973 0.00104963 1e-05
0.0235391 0.00104841 1e-05
0.023681 0.00104717 1e-05
0.0238228 0.00104591 1e-05
0.0239647 0.00104467 1e-05
0.0241076 0.00104342 1e-05
0.0242505 0.00104215 1e-05
0.0243935 0.00104085 1e-05
0.0245364 0.00103953 1e-05
0.0246794 0.00103823 1e-05
0.0248234 0.00103692 1e-05
0.0249675 0.00103559 1e-05
0.0251115 0.00103422 1e-05
0.0252556 0.00103285 1e-05
[...]
POINT_DATA 12075
 FIELD attributes 2
p 1 12075 float
-5.65473 -5.65142 -5.6481 -5.64479 -5.64147 -5.63816
-5.80708 -5.80706 -5.80704 -5.80701 -5.80699 -5.80697
-5.98118 -5.98106 -5.98094 -5.98081 -5.98069 -5.98058
-6.0745 -6.07445 -6.07439 -6.07434 -6.07429 -6.07423
-6.11962 -6.1195 -6.11939 -6.11928 -6.11916 -6.11905
-6.12622 -6.12606 -6.1259 -6.12574 -6.12558 -6.12541
-6.09937 -6.0993 -6.09923 -6.09915 -6.09908 -6.09901
-6.02988 -6.02984 -6.0298 -6.02976 -6.02972 -6.02968
-5.90864 -5.90865 -5.90865 -5.90866 -5.90867 -5.90867
-3.69606 -3.71539 -3.73459 -3.75366 -3.7726 -3.7914
-5.65473 -5.65402 -5.6504 -5.64671 -5.64293 -5.63455 -5.6484 -5.66336 -5.67833 -5.69329 -5.71771 -5.73947 -5.76939 -5.79931 -5.82924 -5.86197 -5.87761 -5.8993 -5.92098 -5.94267 -5.96598 -5.98484 -6.00572 -6.02659 -6.04747 -6.06511 -6.06619 -6.06728 -6.06836 -6.06945 -6.07053 -6.09217 -6.1138 -6.13544 -6.15707 -6.17844 -6.19717 -6.2157 -6.23424 -6.25278 -6.27074 -6.28632 -6.30162 -6.31692 -6.33223 -6.34697 -6.36069 -6.37415 -6.38762 -6.40109 -6.4141 -6.42674 -6.4391 -6.45147 -6.46384 -6.47577 -6.48747 -6.49886 -6.51024 -6.52163 -6.53259 -6.54342 -6.55396 -6.5645 -6.57504 -6.58521 -6.59536 -6.60522 -6.61507 -6.62493 -6.63445 -6.64403 -6.65338 -6.66272 -6.67207 -6.68121 -6.69038 -6.69921 -6.70804 -6.71686 -6.72549 -6.73438 -6.74335 -6.75232 -6.7613 -6.77054 -6.78004 -6.78917 -6.7983 -6.80743 -6.81657 -6.82663 -6.83801 -6.8494 -6.86078 -6.87289 -6.88434 -6.89735 -6.91035 -6.92335 -6.93597 -6.94745 -6.95865 -6.96986 -6.98106 -6.99112 -6.99951 -7.00858 -7.01765 -7.02672 -7.03631 -7.04487 -7.05365 -7.06243 -7.0712 -7.08002 -7.0885 -7.09588 -7.10326 -7.11065 -7.11705 -7.12414 -7.12988 -7.13561 -7.14134 -7.14592 -7.15182 -7.15662 -7.16143 -7.16623 -7.17004 -7.17503 -7.1791 -7.18318 -7.18725 -7.19052 -7.19452 -7.19777 -7.20103 -7.20429 -7.20697 -7.21001 -7.2125 -7.215 -7.21749 -7.21963 -7.22201 -7.22403 -7.22605 -7.22807 -7.22991 -7.23198 -7.23384 -7.23569 -7.23754 -7.2393 -7.24121 -7.24298 -7.24475 -7.24653 -7.24825 -7.25001 -7.25171 -7.2534 -7.25509 -7.25669 -7.25672 -7.25674 -7.25677 -7.2568 -7.25683 -7.2585 -7.26017 -7.26184 -7.26352 -7.26535 -7.26686 -7.26855 -7.27023 -7.27192 -7.27401 -7.27533 -7.2771 -7.27886 -7.28062 -7.2831 -7.28425 -7.28614 -7.28804 -7.28993 -7.2929 -7.29386 -7.29589 -7.29792 -7.29995 -7.30339 -7.30415 -7.30628 -7.30841 -7.31054 -7.31442 -7.315 -7.31723 -7.31947 -7.32171 -7.32603 -7.32647 -7.32884 -7.33121 -7.33357 -7.33829 -7.33865 -7.34115 -7.34365 -7.34615 -7.35121 -7.35154 -7.35417 -7.3568 -7.35943 -7.36477 -7.36511 -7.36787 -7.37062 -7.37347 -7.37895 -7.37953 -7.38225 -7.38514 -7.38837 -7.39377 -7.3947 -7.39732 -7.40034 -7.40393 -7.40922 -7.4105 -7.41308 -7.41623 -7.42011 -7.42528 -7.42691 -7.42949 -7.43276 -7.43689 -7.44195 -7.44391 -7.44652 -7.44992 -7.45424 -7.4592 -7.46148 -7.46416 -7.46768 -7.47215 -7.47702 -7.47958 -7.48237 -7.486 -7.49059 -7.49538 -7.49822 -7.50113 -7.50487 -7.50955 -7.51427 -7.51736 -7.52045 -7.52431 -7.529 -7.53368 -7.537 -7.54031 -7.54429 -7.54894 -7.55358 -7.55712 -7.56067 -7.56474 -7.56934 -7.57395 -7.57769 -7.58144 -7.5856 -7.59016 -7.59472 -7.59864 -7.60256 -7.60678 -7.6113 -7.61582 -7.61988 -7.62393 -7.62821 -7.63271 -7.63721 -7.64135 -7.6455 -7.64983 -7.65433 -7.65883 -7.66304 -7.66726 -7.67165 -7.67615 -7.68067 -7.68494 -7.68924 -7.69366 -7.69818 -7.70272 -7.70703 -7.71139 -7.71585 -7.72037 -7.72493 -7.72928 -7.73368 -7.73816 -7.74269 -7.74726 -7.75163 -7.75607 -7.76056 -7.76508 -7.76967 -7.77403 -7.7785 -7.783 -7.78751 -7.79209 -7.79645 -7.80093 -7.80542 -7.80991 -7.81448 -7.81883 -7.8233 -7.82777 -7.83224 -7.83678 -7.84112 -7.84556 -7.85 -7.85444 -7.85893 -7.86325 -7.86764 -7.87204 -7.87644 -7.88087 -7.88516 -7.8895 -7.89385 -7.89819 -7.90256 -7.90679 -7.91106 -7.91534 -7.91961 -7.92389 -7.92715 -7.93043 -7.93371 -7.93698 -7.94015 -7.94108 -7.94201 -7.94294 -7.94387 -7.9448 -7.94889 -7.95298 -7.95707 -7.96116 -7.96526 -7.96924 -7.97322 -7.97719 -7.98117 -7.98516 -7.98903 -7.99288 -7.99673 -8.00058 -8.00444 -8.00818 -8.01188 -8.01558 -8.01929 -8.02299 -8.02658 -8.0301 -8.03363 -8.03715 -8.04066 -8.04408 -8.04741 -8.05074 -8.05406 -8.05736 -8.06059 -8.06373 -8.06684 -8.06994 -8.07301 -8.07604 -8.07899 -8.08187 -8.08472 -8.08753 -8.09032 -8.09305 -8.09568 -8.09823 -8.10077 -8.10329 -8.10579 -8.10813 -8.11036 -8.11258 -8.11481 -8.11705 -8.11908 -8.12096 -8.12285 -8.12476 -8.12667 -8.12837 -8.12989 -8.13141 -8.13297 -8.13453 -8.13589 -8.13701 -8.13813 -8.13931 -8.14048 -8.14146 -8.14216 -8.14286 -8.14363 -8.14438 -8.14494 -8.14523 -8.14547 -8.1458 -8.14607 -8.14616 -8.14605 -8.14582 -8.14568 -8.1454 -8.145 -8.14448 -8.14373 -8.14308 -8.14221 -8.14128 -8.14033 -8.13902 -8.13783 -8.13633 -8.13483 -8.13334 -8.13154 -8.12967 -8.12757 -8.12548 -8.12338 -8.12108 -8.1185 -8.11576 -8.11303 -8.1103 -8.10748 -8.10545 -8.10336 -8.10126 -8.09917 -8.09716 -8.09585 -8.09454 -8.09322 -8.09191 -8.09055 -8.08654 -8.08247 -8.0784 -8.07433 -8.07007 -8.06549 -8.06066 -8.05584 -8.05102 -8.04584 -8.04068 -8.03506 -8.02945 -8.02384 -8.01768 -8.01183 -8.00547 -7.99903 -7.99241 -7.98538 -7.97869 -7.97169 -7.96438 -7.95667 -7.94874 -7.94115 -7.93351 -7.92528 -7.91642 -7.90754 -7.89903 -7.89052 -7.88132 -7.87145 -7.86158 -7.85209 -7.84261 -7.83244 -7.82154 -7.81064 -7.80014 -7.78964 -7.77839 -7.76649 -7.75452 -7.74297 -7.73113 -7.71878 -7.7061 -7.69303 -7.68038 -7.66712 -7.65364 -7.64015 -7.62593 -7.61204 -7.59739 -7.58275 -7.56811 -7.55304 -7.53761 -7.52175 -7.50589 -7.49005 -7.47413 -7.47088 -7.46756 -7.46425 -7.46093 -7.45766 -7.44399 -7.43033 -7.41667 -7.40302 -7.3891 -7.37116 -7.35294 -7.33474 -7.31654 -7.29769 -7.27882 -7.2593 -7.23978 -7.22005 -7.19969 -7.17952 -7.15904 -7.13818 -7.11668 -7.09495 -7.07341 -7.05188 -7.02956 -7.00642 -6.98328 -6.96035 -6.93742 -6.91367 -6.8891 -6.86453 -6.84018 -6.81562 -6.79031 -6.7646 -6.73858 -6.71278 -6.68625 -6.65948 -6.63272 -6.6053 -6.57774 -6.54948 -6.52123 -6.49298 -6.4646 -6.45684 -6.44892 -6.441 -6.43308 -6.42532 -6.40354 -6.38177 -6.36 -6.33824 -6.31618 -6.2853 -6.25417 -6.22305 -6.19195 -6.16009 -6.12795 -6.09544 -6.06282 -6.02979 -5.99639 -5.96273 -5.92909 -5.89487 -5.85996 -5.82506 -5.78988 -5.75472 -5.71891 -5.6825 -5.6461 -5.60942 -5.57248 -5.53504 -5.49746 -5.45957 -5.42141 -5.38249 -5.34358 -5.30468 -5.26556 -5.24455 -5.22326 -5.20198 -5.18071 -5.1602 -5.14102 -5.12185 -5.10268 -5.08351 -5.06408 -5.02259 -4.98093 -4.93928 -4.89765 -4.85522 -4.81257 -4.76966 -4.72663 -4.6831 -4.63929 -4.59526 -4.55125 -4.50673 -4.46162 -4.41649 -4.37114 -4.32577 -4.27974 -4.23347 -4.1871 -4.14048 -4.09337 -4.04611 -3.99887 -3.95141 -3.92023 -3.88876 -3.8573 -3.82584 -3.79567 -3.7785 -3.76134 -3.74418 -3.72702 -3.70968 -3.66036 -3.61097 -3.56159 -3.51221 -3.46221 -3.41201 -3.36172 -3.31135 -3.26056 -3.20963 -3.15848 -3.10734 -3.05589 -3.00416 -2.95239 -2.90038 -2.84824 -2.79586 -2.74346 -2.69097 -2.63815 -2.58507 -2.532 -2.47894 -2.42586 -2.42532 -2.42479 -2.42425 -2.42371 -2.42317 -2.37004 -2.31692 -2.26381 -2.21072 -2.15735 -2.10317 -2.04902 -1.99489 -1.94062 -1.88624 -1.83162 -1.77701 -1.72238 -1.66773 -1.61304 -1.5581 -1.50314 -1.44814 -1.39318 -1.33831 -1.29029 -1.24228 -1.19428 -1.1463 -1.10027 -1.09273 -1.08518 -1.07764 -1.0701 -1.06254 -1.00721 -0.951931 -0.896659 -0.8414 -0.786134 -0.730645 -0.675287 -0.62008 -0.564972 -0.509842 -0.454471 -0.399112 -0.343911 -0.289052 -0.234161 -0.179008 -0.124036 -0.0691421 -0.0142583 0.0404485 0.0614641 0.0823693 0.103273 0.124175 0.144796 0.178603 0.212406 0.246207 0.280004 0.313691 0.368332 0.422619 0.476898 0.53104 0.585074 0.639274 0.693465 0.747254 0.8007 0.854173 0.907825 0.961348 1.01465 1.06791 1.12077 1.15825 1.19548 1.23271 1.26993 1.30652 1.32219 1.33786 1.35353 1.3692 1.38479 1.43729 1.48959 1.54187 1.59408 1.64605 1.69812 1.75017 1.80165 1.8528 1.90397 1.95527 2.0065 2.05737 2.10797 2.1583 2.20553 2.25235 2.29917 2.34598 2.39228 2.39561 2.39893 2.40226 2.40558 2.40889 2.4584 2.50786 2.55732 2.60678 2.65584 2.70496 2.75387 2.80243 2.85059 2.89874 2.94696 2.99518 3.04299 3.0903 3.13751 3.1848 3.2317 3.27854 3.32539 3.37208 3.3797 3.38724 3.39479 3.40233 3.40988 3.4485 3.48711 3.52573 3.56435 3.60264 3.64847 3.69388 3.73915 3.78411 3.82895 3.87385 3.91874 3.96322 4.00712 4.05101 4.09497 4.13868 4.18222 4.22576 4.26888 4.28954 4.31001 4.33048 4.35095 4.37154 4.39382 4.4161 4.43838 4.46066 4.48275 4.52517 4.56719 4.60921 4.65108 4.69271 4.7344 4.77609 4.81724 4.85803 4.89881 4.93967 4.98046 5.02097 5.06128 5.10125 5.13908 5.1766 5.21413 5.25166 5.28982 5.29191 5.294 5.2961 5.29819 5.30027 5.33952 5.37875 5.41797 5.4572 5.49611 5.53513 5.57389 5.61243 5.65074 5.68898 5.72735 5.76573 5.80384 5.8415 5.87915 5.91695 5.95461 5.99217 6.02974 6.06696 6.08832 6.10959 6.13085 6.15212 6.17356 6.18941 6.20527 6.22112 6.23697 6.25275 6.28979 6.32662 6.36345 6.40023 6.4369 6.47371 6.51052 6.547 6.58338 6.61976 6.65628 6.69279 6.72925 6.76556 6.80173 6.83804 6.87435 6.91066 6.94697 6.98325 6.98553 6.98781 6.99009 6.99237 6.99466 7.02868 7.06269 7.09671 7.13073 7.16478 7.20127 7.23765 7.27396 7.31035 7.34676 7.38331 7.41986 7.45651 7.49308 7.52967 7.56638 7.60323 7.64016 7.67709 7.71397 7.72836 7.74286 7.75735 7.77184 7.78624 7.809 7.83176 7.85453 7.87729 7.90021 7.93784 7.97546 8.01309 8.0509 8.08887 8.12695 8.16503 8.20334 8.24186 8.28039 8.31902 8.35789 8.39697 8.43605 8.47522 8.49183 8.50865 8.52548 8.5423 8.55892 8.58184 8.60477 8.6277 8.65063 8.67386 8.7141 8.75451 8.79492 8.83569 8.87668 8.91771 8.95874 9.00023 9.04207 9.08393 9.12581 9.16819 9.21071 9.25323 9.29583 9.30071 9.30565 9.31061 9.31556 9.3205 9.35882 9.39716 9.43549 9.47389 9.51281 9.55674 9.60073 9.64499 9.68983 9.7347 9.77954 9.82454 9.87004 9.91556 9.96134 9.98524 10.0094 10.0336 10.0579 10.082 10.104 10.1261 10.1482 10.1703 10.1927 10.2394 10.2864 10.3334 10.3808 10.4284 10.4758 10.5233 10.5712 10.6194 10.6676 10.7055 10.7437 10.782 10.8203 10.8595 10.8695 10.8795 10.8895 10.8995 10.9096 10.9583 11.0071 11.0559 11.1049 11.1541 11.2032 11.2523 11.3011 11.3497 11.3982 11.4466 11.496 11.5459 11.5958 11.6457 11.6556 11.6642 11.6726 11.681 11.6896 11.7265 11.7634 11.8002 11.8366 11.8678 11.9061 11.9493 11.9961 12.0556 12.1171 12.1781 12.2375 12.2746 12.3097 12.3364 12.3462 12.3575 12.3699 12.3823 12.3955 12.414 12.4326 12.4512 12.4713 12.4941 12.5305 12.5668 12.6029 12.639 12.6749 12.7105 12.744 12.7759 12.8077 12.8389 12.8412 12.8433 12.8453 12.8473 12.8494 12.8754 12.9013 12.927 12.952 12.975 12.9986 13.022 13.0432 13.0624 13.0814 13.0987 13.1138 13.1276 13.1412 13.1539 13.1558 13.1571 13.1582 13.1593 13.1605 13.1668 13.1731 13.1792 13.1849 13.1882 13.1893 13.1889 13.1869 13.1809 13.1744 13.1646 13.1547 13.1405 13.1233 13.1055 13.0841 13.0579 13.0309 13.0037 12.975 12.9638 12.9511 12.9384 12.9258 12.9117 12.8858 12.8599 12.8339 12.8078 12.7787 12.7296 12.6769 12.624 12.5689 12.5095 12.4453 12.3803 12.3108 12.2348 12.1586 12.0773 11.996 11.9082 11.8143 11.7203 11.6207 11.5188 11.4118 11.3023 11.1897 11.0711 10.9452 10.818 10.6908 10.5584 10.4154 10.2677 10.12 9.97222 9.8232 9.76133 9.69746 9.63359 9.56971 9.49582 9.39025 9.28464 9.17899 9.07331 8.96443 8.77214 8.57862 8.38504 8.1914 7.99463 7.78309 7.55384 7.32444 7.09491 6.83914 6.57385 6.32516 6.07872 5.83777 5.61141 5.37722 5.09156 4.76341 4.37503 3.94361 3.4966 3.08842 2.80863 2.66924 2.56059 2.44774 2.33514 1.81808 0.908367 0