0 	506.15 	-1.17278e-05
0.000446734 	506.125 	-1.17315e-05
0.000893467 	506.101 	-1.17352e-05
0.0013402 	506.076 	-1.17429e-05
0.00178693 	506.051 	-1.17543e-05
0.00223367 	506.027 	-1.1766e-05
0.0026804 	506.002 	-1.17895e-05
0.00312714 	505.978 	-1.1813e-05
0.00357387 	505.954 	-1.18496e-05
0.0040206 	505.93 	-1.18973e-05
0.00446734 	505.906 	-1.1947e-05
0.00491407 	505.882 	-1.20334e-05
0.0053608 	505.859 	-1.21198e-05
0.00580754 	505.836 	-1.22325e-05
0.00625427 	505.813 	-1.23657e-05
0.00670101 	505.79 	-1.25024e-05
0.00714774 	505.768 	-1.26817e-05
0.00759447 	505.746 	-1.2861e-05
0.00804121 	505.725 	-1.30654e-05
0.00848794 	505.704 	-1.32875e-05
0.00893467 	505.683 	-1.3514e-05
0.00938141 	505.663 	-1.37806e-05
0.00982814 	505.644 	-1.40472e-05
0.0102749 	505.625 	-1.4348e-05
0.0107216 	505.606 	-1.46704e-05
0.0111683 	505.588 	-1.50022e-05
0.0116151 	505.571 	-1.54001e-05
0.0120618 	505.555 	-1.5798e-05
0.0125085 	505.539 	-1.62593e-05
0.0129553 	505.524 	-1.67565e-05
0.013402 	505.509 	-1.7272e-05
0.0138487 	505.495 	-1.78905e-05
0.0142955 	505.482 	-1.8509e-05
0.0147422 	505.469 	-1.92171e-05
0.0151889 	505.458 	-1.99707e-05
0.0156357 	505.446 	-2.07482e-05
0.0160824 	505.436 	-2.16384e-05
0.0165291 	505.426 	-2.25285e-05
0.0169759 	505.416 	-2.35038e-05
0.0174226 	505.408 	-2.45178e-05
0.0178693 	505.399 	-2.55515e-05
0.0183161 	505.392 	-2.66641e-05
0.0187628 	505.385 	-2.77766e-05
0.0192095 	505.378 	-2.89351e-05
0.0196563 	505.372 	-3.0112e-05
0.020103 	505.366 	-3.12946e-05
0.0205497 	505.361 	-3.24966e-05
0.0209965 	505.357 	-3.36987e-05
0.0214432 	505.352 	-3.48894e-05
0.0218899 	505.348 	-3.60761e-05
0.0223367 	505.344 	-3.72491e-05
0.0227834 	505.341 	-3.83809e-05
0.0232302 	505.338 	-3.95127e-05
0.0236769 	505.335 	-4.05744e-05
0.0241236 	505.332 	-4.16143e-05
0.0245704 	505.33 	-4.26196e-05
0.0250171 	505.327 	-4.35338e-05
0.0254638 	505.325 	-4.4448e-05
0.0259106 	505.323 	-4.52397e-05
0.0263573 	505.321 	-4.59984e-05
0.026804 	505.32 	-4.67026e-05
0.0272508 	505.318 	-4.72799e-05
0.0276975 	505.316 	-4.78572e-05
0.0281442 	505.315 	-4.82701e-05
0.028591 	505.313 	-4.8645e-05
0.0290377 	505.312 	-4.89491e-05
0.0294844 	505.311 	-4.91058e-05
0.0299312 	505.309 	-4.92625e-05
0.0303779 	505.308 	-4.92274e-05
0.0308246 	505.307 	-4.91552e-05
0.0312714 	505.306 	-4.90009e-05
0.0317181 	505.304 	-4.86943e-05
0.0321648 	505.303 	-4.83877e-05
0.0326116 	505.302 	-4.788e-05
0.0330583 	505.3 	-4.73402e-05
0.033505 	505.299 	-4.67158e-05
0.0339518 	505.297 	-4.59503e-05
0.0343985 	505.296 	-4.51849e-05
0.0348452 	505.295 	-4.42316e-05
0.035292 	505.293 	-4.32545e-05
0.0357387 	505.291 	-4.22012e-05
0.0361854 	505.29 	-4.10338e-05
0.0366322 	505.288 	-3.98665e-05
0.0370789 	505.286 	-3.85516e-05
0.0375256 	505.284 	-3.72225e-05
0.0379724 	505.282 	-3.584e-05
0.0384191 	505.28 	-3.43852e-05
0.0388658 	505.278 	-3.29304e-05
0.0393126 	505.276 	-3.13979e-05
0.0397593 	505.274 	-2.98602e-05
0.040206 	505.271 	-2.83072e-05
0.0406528 	505.269 	-2.67354e-05
0.0410995 	505.266 	-2.51636e-05
0.0415462 	505.264 	-2.36101e-05
0.041993 	505.261 	-2.20573e-05
0.0424397 	505.258 	-2.05397e-05
0.0428864 	505.255 	-1.90608e-05
0.0433332 	505.252 	-1.75819e-05
0.0437799 	505.249 	-1.62284e-05
0.0442266 	505.246 	-1.48765e-05
0.0446734 	505.242 	-1.36115e-05
0.0451201 	505.239 	-1.24334e-05
0.0455668 	505.236 	-1.12579e-05
0.0460136 	505.232 	-1.02893e-05
0.0464603 	505.228 	-9.32067e-06
0.046907 	505.224 	-8.47229e-06
0.0473538 	505.22 	-7.73269e-06
0.0478005 	505.216 	-7.00166e-06
0.0482472 	505.212 	-6.49064e-06
0.048694 	505.208 	-5.97961e-06
0.0491407 	505.204 	-5.58252e-06
0.0495874 	505.2 	-5.27864e-06
0.0500342 	505.195 	-4.98525e-06
0.0504809 	505.191 	-4.84905e-06
0.0509276 	505.186 	-4.71286e-06
0.0513744 	505.181 	-4.64422e-06
0.0518211 	505.176 	-4.62552e-06
0.0522678 	505.172 	-4.61266e-06
0.0527146 	505.167 	-4.66071e-06
0.0531613 	505.162 	-4.70876e-06
0.053608 	505.157 	-4.77187e-06
0.0540548 	505.151 	-4.845e-06
0.0545015 	505.146 	-4.91791e-06
0.0549482 	505.141 	-4.98903e-06
0.055395 	505.135 	-5.06014e-06
0.0558417 	505.13 	-5.12207e-06
0.0562884 	505.124 	-5.17849e-06
0.0567352 	505.118 	-5.23257e-06
0.0571819 	505.113 	-5.27194e-06
0.0576286 	505.107 	-5.31131e-06
0.0580754 	505.101 	-5.34158e-06
0.0585221 	505.095 	-5.36693e-06
0.0589688 	505.089 	-5.3905e-06
0.0594156 	505.083 	-5.4048e-06
0.0598623 	505.077 	-5.4191e-06
0.060309 	505.068 	-5.41403e-06
0.0607558 	505.057 	-5.39964e-06
0.0612025 	505.043 	-5.37947e-06
0.0616492 	505.014 	-5.33428e-06
0.062096 	504.984 	-5.28909e-06
0.0625427 	504.943 	-4.66831e-06
0.0629894 	504.897 	-3.80085e-06
0.0634362 	504.852 	-2.7595e-06
0.0638829 	504.806 	-1.07379e-06
0.0643296 	504.761 	6.11927e-07
0.0647764 	504.715 	2.30127e-06
0.0652231 	504.669 	3.99198e-06
0.0656698 	504.624 	5.68288e-06
0.0661166 	504.578 	7.37436e-06
0.0665633 	504.532 	9.06585e-06
0.0670101 	504.486 	1.07535e-05
0.0674568 	504.44 	1.24398e-05
0.0679035 	504.393 	1.4123e-05
0.0683503 	504.347 	1.57973e-05
0.068797 	504.301 	1.74717e-05
0.0692437 	504.254 	1.91311e-05
0.0696905 	504.208 	2.07861e-05
0.0701372 	504.161 	2.24334e-05
0.0705839 	504.114 	2.40616e-05
0.0710307 	504.068 	2.56897e-05
0.0714774 	504.021 	2.729e-05
0.0719241 	503.974 	2.88834e-05
0.0723709 	503.927 	3.04635e-05
0.0728176 	503.879 	3.20142e-05
0.0732643 	503.832 	3.35649e-05
0.0737111 	503.785 	3.50737e-05
0.0741578 	503.738 	3.65736e-05
0.0746045 	503.69 	3.80536e-05
0.0750513 	503.643 	3.94946e-05
0.075498 	503.595 	4.09355e-05
0.0759447 	503.548 	4.23192e-05
0.0763915 	503.5 	4.36928e-05
0.0768382 	503.452 	4.5039e-05
0.0772849 	503.404 	4.63369e-05
0.0777317 	503.357 	4.76348e-05
0.0781784 	503.309 	4.8859e-05
0.0786251 	503.261 	5.00727e-05
0.0790719 	503.213 	5.12503e-05
0.0795186 	503.165 	5.2371e-05
0.0799653 	503.117 	5.34917e-05
0.0804121 	503.069 	5.45209e-05
0.0808588 	503.02 	5.55399e-05
0.0813055 	502.972 	5.65133e-05
0.0817523 	502.924 	5.74218e-05
0.082199 	502.876 	5.83302e-05
0.0826457 	502.828 	5.91283e-05
0.0830925 	502.779 	5.99174e-05
0.0835392 	502.731 	6.06505e-05
0.0839859 	502.683 	6.13116e-05
0.0844327 	502.634 	6.19726e-05
0.0848794 	502.586 	6.25043e-05
0.0853261 	502.538 	6.30291e-05
0.0857729 	502.489 	6.34875e-05
0.0862196 	502.441 	6.38687e-05
0.0866663 	502.392 	6.42499e-05
0.0871131 	502.344 	6.44851e-05
0.0875598 	502.295 	6.47166e-05
0.0880065 	502.247 	6.4873e-05
0.0884533 	502.198 	6.49507e-05
0.0889 	502.15 	6.50283e-05
