# f_l  POINT_DATA 1549
#  x  y  z  f_l
0.0408672 0.00111 0.0025 0.5
0.0408672 0.00111 -0.0025 0.5
0.0409657 0.000555 0 0.5
0.0409457 0.001665 2.33296e-20 0.5
0.0408715 0.00222 0.0025 0.5
0.0408715 0.00222 -0.0025 0.5
0.0409512 0.00127482 -0.00175755 0.5
0.0409512 0.00127482 0.00175755 0.5
0.0409602 0.000954105 -0.00179777 0.5
0.0409602 0.000954105 0.00179777 0.5
0.0409532 0.00205713 0.00176634 0.5
0.0409532 0.00205713 -0.00176634 0.5
0.0409512 0.00127482 0.0025 0.5
0.0409512 0.00127482 -0.0025 0.5
0.0409602 0.000954105 0.0025 0.5
0.0409602 0.000954105 -0.0025 0.5
0.0409723 0.002775 4.50095e-20 0.5
0.0409649 0.00237115 0.00181914 0.5
0.0409649 0.00237115 -0.00181914 0.5
0.0409532 0.00205713 0.0025 0.5
0.0409532 0.00205713 -0.0025 0.5
0.0409649 0.00237115 0.0025 0.5
0.0409649 0.00237115 -0.0025 0.5
0.0409083 0.00333 0.0025 0.5
0.0409083 0.00333 -0.0025 0.5
0.0409822 0.00319611 -0.00189688 0.5
0.0409822 0.00319611 0.00189688 0.5
0.0409822 0.00319611 0.0025 0.5
0.0409822 0.00319611 -0.0025 0.5
0.0409939 0.00345218 0.00194965 0.5
0.0409939 0.00345218 -0.00194965 0.5
0.0410036 0.003885 -6.78753e-20 0.5
0.0411163 0.00090684 -0.0025 0.5
0.0411163 0.00090684 0.0025 0.5
0.0409939 0.00345218 0.0025 0.5
0.0409939 0.00345218 -0.0025 0.5
0.0409533 0.00444 0.0025 0.5
0.0409533 0.00444 -0.0025 0.5
0.0410156 0.00433949 -0.00204723 0.5
0.0410156 0.00433949 0.00204723 0.5
0.0410156 0.00433949 0.0025 0.5
0.0410156 0.00433949 -0.0025 0.5
0.0410255 0.00453069 0.00209149 0.5
0.0410255 0.00453069 -0.00209149 0.5
0.0410371 0.004995 8.46156e-20 0.5
0.0410255 0.00453069 0.0025 0.5
0.0410255 0.00453069 -0.0025 0.5
0.0410023 0.00555 0.0025 0.5
0.0410023 0.00555 -0.0025 0.5
0.0413941 0.0002775 0.0025 0.5
0.0413941 0.0002775 -0.0025 0.5
0.0410495 0.00548329 -0.00219949 0.5
0.0410495 0.00548329 0.00219949 0.5
0.0410495 0.00548329 0.0025 0.5
0.0410495 0.00548329 -0.0025 0.5
0.0410557 0.00561044 -0.00222774 0.5
0.0410557 0.00561044 0.00222774 0.5
0.0410557 0.00561044 0.0025 0.5
0.0410557 0.00561044 -0.0025 0.5
0.0410677 0.006105 4.46498e-21 0.5
0.0416719 0.0002775 0 0.5
0.0410773 0.00666 0.0025 0.5
0.0410773 0.00666 -0.0025 0.5
0.0410946 0.00663836 -0.00240253 0.5
0.0410946 0.00663836 0.00240253 0.5
0.0410946 0.00663836 0.0025 0.5
0.0410946 0.00663836 -0.0025 0.5
0.0410962 0.00668004 0.00240974 0.5
0.0410962 0.00668004 -0.00240974 0.5
0.0410962 0.00668004 0.0025 0.5
0.0410962 0.00668004 -0.0025 0.5
0.0411239 0.007215 -2.8926e-21 0.5
0.0411163 0.00695694 -0.0025 0.5
0.0411163 0.00695694 0.0025 0.5
0.0411692 0.00771707 -0.00226158 0.5
0.0411692 0.00771707 0.00226158 0.5
0.0411692 0.00771707 0.0025 0.5
0.0411692 0.00771707 -0.0025 0.5
0.0411904 0.00784407 -0.00216635 0.5
0.0411904 0.00784407 0.00216635 0.5
0.0411904 0.00784407 0.0025 0.5
0.0411904 0.00784407 -0.0025 0.5
0.0412235 0.00777 0.0025 0.5
0.0412235 0.00777 -0.0025 0.5
0.0419497 0.0002775 0.0025 0.5
0.0419497 0.0002775 -0.0025 0.5
0.0412404 0.008325 5.27493e-21 0.5
0.0412786 0.00871783 -0.00176951 0.5
0.0412786 0.00871783 0.00176951 0.5
0.0412786 0.00871783 0.0025 0.5
0.0412786 0.00871783 -0.0025 0.5
0.0422275 0.000555 -0.0025 0.5
0.0422275 0.000555 0.0025 0.5
0.0413567 0.00912018 -0.00141811 0.5
0.0413567 0.00912018 0.00141811 0.5
0.0413987 0.00888 0.0025 0.5
0.0413987 0.00888 -0.0025 0.5
0.0413567 0.00912018 -0.0025 0.5
0.0413567 0.00912018 0.0025 0.5
0.0414129 0.00960092 4.31622e-20 0.5
0.0425053 0.0002775 0.0025 0.5
0.0425053 0.0002775 -0.0025 0.5
0.0414227 0.00968388 -0.0025 0.5
0.0414227 0.00968388 0.0025 0.5
0.0427831 0.0002775 -6.27343e-20 0.5
0.0415667 0.00999 0.0025 0.5
0.0415667 0.00999 -0.0025 0.5
0.0416353 0.0105553 -1.17302e-22 0.5
0.0416256 0.0104988 -0.0025 0.5
0.0416256 0.0104988 0.0025 0.5
0.0416376 0.0105792 -0.0025 0.5
0.0416376 0.0105792 0.0025 0.5
0.0430609 0.0002775 0.0025 0.5
0.0430609 0.0002775 -0.0025 0.5
0.0417356 0.0111 -0.0025 0.5
0.0417356 0.0111 0.0025 0.5
0.0433388 0.000555 -0.0025 0.5
0.0433388 0.000555 0.0025 0.5
0.0418812 0.0114459 -0.0025 0.5
0.0418812 0.0114459 0.0025 0.5
0.0419083 0.0116737 -1.07011e-19 0.5
0.0419373 0.0119201 -0.0025 0.5
0.0419373 0.0119201 0.0025 0.5
0.0436166 0.0002775 0.0025 0.5
0.0436166 0.0002775 -0.0025 0.5
0.0419027 0.01221 0.0025 0.5
0.0419027 0.01221 -0.0025 0.5
0.0420377 0.0123996 0.00164606 0.5
0.0420377 0.0123996 -0.00164606 0.5
0.0438944 0.0002775 -5.5916e-20 0.5
0.0420377 0.0123996 0.0025 0.5
0.0420377 0.0123996 -0.0025 0.5
0.0420724 0.012765 -4.24982e-19 0.5
0.0421071 0.0131997 -0.00195821 0.5
0.0421071 0.0131997 0.00195821 0.5
0.0420543 0.01332 0.0025 0.5
0.0420543 0.01332 -0.0025 0.5
0.0421071 0.0131997 0.0025 0.5
0.0421071 0.0131997 -0.0025 0.5
0.0441722 0.0002775 0.0025 0.5
0.0441722 0.0002775 -0.0025 0.5
0.0421381 0.0134093 0.00209775 0.5
0.0421381 0.0134093 -0.00209775 0.5
0.0421381 0.0134093 0.0025 0.5
0.0421381 0.0134093 -0.0025 0.5
0.0421702 0.013875 3.40249e-19 0.5
0.04445 0.000555 0.0025 0.5
0.04445 0.000555 -0.0025 0.5
0.0422275 0.014069 -0.0025 0.5
0.0422275 0.014069 0.0025 0.5
0.0422663 0.0143912 -0.0023253 0.5
0.0422663 0.0143912 0.0023253 0.5
0.0422663 0.0143912 0.0025 0.5
0.0422663 0.0143912 -0.0025 0.5
0.0423046 0.014507 -0.00215297 0.5
0.0423046 0.014507 0.00215297 0.5
0.0423162 0.01443 0.0025 0.5
0.0423162 0.01443 -0.0025 0.5
0.0423046 0.014507 0.0025 0.5
0.0423046 0.014507 -0.0025 0.5
0.0447278 0.0002775 0.0025 0.5
0.0447278 0.0002775 -0.0025 0.5
0.0424183 0.014985 -3.33715e-20 0.5
0.0450056 0.0002775 0 0.5
0.0424825 0.0152853 -0.00135284 0.5
0.0424825 0.0152853 0.00135284 0.5
0.0424825 0.0152853 0.0025 0.5
0.0424825 0.0152853 -0.0025 0.5
0.0452834 0.0002775 0.0025 0.5
0.0452834 0.0002775 -0.0025 0.5
0.0426719 0.01554 0.0025 0.5
0.0426719 0.01554 -0.0025 0.5
0.0455612 0.000555 -0.0025 0.5
0.0455612 0.000555 0.0025 0.5
0.0428708 0.0160845 -1.45611e-19 0.5
0.0428587 0.0160195 0.0025 0.5
0.0428587 0.0160195 -0.0025 0.5
0.0458391 0.0002775 0.0025 0.5
0.0458391 0.0002775 -0.0025 0.5
0.0429037 0.0162154 0.0025 0.5
0.0429037 0.0162154 -0.0025 0.5
0.0461169 0.0002775 0 0.5
0.042964 0.01665 0.0025 0.5
0.042964 0.01665 -0.0025 0.5
0.0431294 0.0168591 0.00155809 0.5
0.0431294 0.0168591 -0.00155809 0.5
0.0431294 0.0168591 0.0025 0.5
0.0431294 0.0168591 -0.0025 0.5
0.0463947 0.0002775 0.0025 0.5
0.0463947 0.0002775 -0.0025 0.5
0.043181 0.017205 3.1893e-20 0.5
0.0466725 0.000555 -0.0025 0.5
0.0466725 0.000555 0.0025 0.5
0.043273 0.0176944 -0.00220435 0.5
0.043273 0.0176944 0.00220435 0.5
0.043273 0.0176944 0.0025 0.5
0.043273 0.0176944 -0.0025 0.5
0.0432499 0.01776 0.0025 0.5
0.0432499 0.01776 -0.0025 0.5
0.0432954 0.0178033 0.00230512 0.5
0.0432954 0.0178033 -0.00230512 0.5
0.0432954 0.0178033 0.0025 0.5
0.0432954 0.0178033 -0.0025 0.5
0.0433388 0.0179892 0.0025 0.5
0.0433388 0.0179892 -0.0025 0.5
0.0469503 0.0002775 0.0025 0.5
0.0469503 0.0002775 -0.0025 0.5
0.0433876 0.018315 -9.1549e-20 0.5
0.0472281 0.0002775 -1.94461e-21 0.5
0.0434939 0.018715 -0.00180176 0.5
0.0434939 0.018715 0.00180176 0.5
0.0434939 0.018715 0.0025 0.5
0.0434939 0.018715 -0.0025 0.5
0.0475059 0.0002775 0.0025 0.5
0.0475059 0.0002775 -0.0025 0.5
0.0436677 0.01887 0.0025 0.5
0.0436677 0.01887 -0.0025 0.5
0.0477837 0.000555 -0.0025 0.5
0.0477837 0.000555 0.0025 0.5
0.0439017 0.0194249 5.40073e-20 0.5
0.0439001 0.0194193 0.0025 0.5
0.0439001 0.0194193 -0.0025 0.5
0.0439053 0.0194359 0.0025 0.5
0.0439053 0.0194359 -0.0025 0.5
0.0480616 0.0002775 0.0025 0.5
0.0480616 0.0002775 -0.0025 0.5
0.0483394 0.0002775 0 0.5
0.0440562 0.01998 0.0025 0.5
0.0440562 0.01998 -0.0025 0.5
0.0442382 0.0201916 -0.00154695 0.5
0.0442382 0.0201916 0.00154695 0.5
0.0486172 0.0002775 0.0025 0.5
0.0486172 0.0002775 -0.0025 0.5
0.0442382 0.0201916 -0.0025 0.5
0.0442382 0.0201916 0.0025 0.5
0.0443002 0.020535 -1.12366e-18 0.5
0.048895 0.000555 -0.0025 0.5
0.048895 0.000555 0.0025 0.5
0.0443908 0.0210309 0.00223359 0.5
0.0443908 0.0210309 -0.00223359 0.5
0.0443908 0.0210309 0.0025 0.5
0.0443908 0.0210309 -0.0025 0.5
0.0443692 0.02109 0.0025 0.5
0.0443692 0.02109 -0.0025 0.5
0.0444116 0.0211283 -0.00232725 0.5
0.0444116 0.0211283 0.00232725 0.5
0.0491728 0.0002775 0.0025 0.5
0.0491728 0.0002775 -0.0025 0.5
0.0444116 0.0211283 -0.0025 0.5
0.0444116 0.0211283 0.0025 0.5
0.04445 0.0212855 0.0025 0.5
0.04445 0.0212855 -0.0025 0.5
0.0494506 0.0002775 0 0.5
0.0444992 0.021645 1.02542e-18 0.5
0.0446128 0.0220373 0.00176732 0.5
0.0446128 0.0220373 -0.00176732 0.5
0.0497284 0.0002775 0.0025 0.5
0.0497284 0.0002775 -0.0025 0.5
0.0446128 0.0220373 0.0025 0.5
0.0446128 0.0220373 -0.0025 0.5
0.0500063 0.000555 -0.0025 0.5
0.0500063 0.000555 0.0025 0.5
0.0448135 0.0222 0.0025 0.5
0.0448135 0.0222 -0.0025 0.5
0.0502841 0.0002775 0.0025 0.5
0.0502841 0.0002775 -0.0025 0.5
0.045099 0.0226617 -0.0025 0.5
0.045099 0.0226617 0.0025 0.5
0.0451256 0.0227545 1.2782e-18 0.5
0.0505619 0.0002775 1.91847e-21 0.5
0.0451847 0.0229338 0.0025 0.5
0.0451847 0.0229338 -0.0025 0.5
0.0508397 0.0002775 0.0025 0.5
0.0508397 0.0002775 -0.0025 0.5
0.0452496 0.02331 0.0025 0.5
0.0452496 0.02331 -0.0025 0.5
0.0454092 0.0234618 -0.00181603 0.5
0.0454092 0.0234618 0.00181603 0.5
0.0454092 0.0234618 -0.0025 0.5
0.0454092 0.0234618 0.0025 0.5
0.0511175 0.000555 -0.0025 0.5
0.0511175 0.000555 0.0025 0.5
0.04548 0.023865 9.27974e-19 0.5
0.0513953 0.0002775 0.0025 0.5
0.0513953 0.0002775 -0.0025 0.5
0.0516731 0.0002775 0 0.5
0.0455612 0.0243589 -0.0025 0.5
0.0455612 0.0243589 0.0025 0.5
0.0455702 0.0244111 -0.00245982 0.5
0.0455702 0.0244111 0.00245982 0.5
0.0455702 0.0244111 -0.0025 0.5
0.0455702 0.0244111 0.0025 0.5
0.0455743 0.024433 -0.0024413 0.5
0.0455743 0.024433 0.0024413 0.5
0.0455806 0.02442 -0.0025 0.5
0.0455806 0.02442 0.0025 0.5
0.0455743 0.024433 -0.0025 0.5
0.0455743 0.024433 0.0025 0.5
0.0519509 0.0002775 0.0025 0.5
0.0519509 0.0002775 -0.0025 0.5
0.0456673 0.024975 -1.6872e-18 0.5
0.0522288 0.000555 -0.0025 0.5
0.0522288 0.000555 0.0025 0.5
0.0457727 0.0253188 -0.00154849 0.5
0.0457727 0.0253188 0.00154849 0.5
0.0457727 0.0253188 0.0025 0.5
0.0457727 0.0253188 -0.0025 0.5
0.0525066 0.0002775 0.0025 0.5
0.0525066 0.0002775 -0.0025 0.5
0.0460252 0.02553 0.0025 0.5
0.0460252 0.02553 -0.0025 0.5
0.0527844 0.0002775 0 0.5
0.0463037 0.0258835 -2.80386e-19 0.5
0.0463251 0.025877 0.0025 0.5
0.0463251 0.025877 -0.0025 0.5
0.0530622 0.0002775 0.0025 0.5
0.0530622 0.0002775 -0.0025 0.5
0.05334 0.000555 -0.0025 0.5
0.05334 0.000555 0.0025 0.5
0.0464772 0.0264449 0.00162107 0.5
0.0464772 0.0264449 -0.00162107 0.5
0.0464772 0.0264449 0.0025 0.5
0.0464772 0.0264449 -0.0025 0.5
0.0464621 0.02664 -0.0025 0.5
0.0464621 0.02664 0.0025 0.5
0.0536178 0.0002775 -0.0025 0.5
0.0536178 0.0002775 0.0025 0.5
0.0465753 0.0267371 -0.00206277 0.5
0.0465753 0.0267371 0.00206277 0.5
0.0465753 0.0267371 -0.0025 0.5
0.0465753 0.0267371 0.0025 0.5
0.0538956 0.0002775 0 0.5
0.0466412 0.027195 0 0.5
0.0466725 0.027274 -0.0025 0.5
0.0466725 0.027274 0.0025 0.5
0.0541734 0.0002775 0.0025 0.5
0.0541734 0.0002775 -0.0025 0.5
0.0467416 0.0276809 -0.00218887 0.5
0.0467416 0.0276809 0.00218887 0.5
0.0467416 0.0276809 0.0025 0.5
0.0467416 0.0276809 -0.0025 0.5
0.0468348 0.02775 0.0025 0.5
0.0468348 0.02775 -0.0025 0.5
0.0544513 0.000555 -0.0025 0.5
0.0544513 0.000555 0.0025 0.5
0.0468416 0.027919 -0.00173895 0.5
0.0468416 0.027919 0.00173895 0.5
0.0468416 0.027919 0.0025 0.5
0.0468416 0.027919 -0.0025 0.5
0.0547291 0.0002775 0.0025 0.5
0.0547291 0.0002775 -0.0025 0.5
0.0550069 0.0002775 -5.58287e-21 0.5
0.0470475 0.0285061 1.58616e-19 0.5
0.0470253 0.0285076 -0.0025 0.5
0.0470253 0.0285076 0.0025 0.5
0.0552847 0.0002775 0.0025 0.5
0.0552847 0.0002775 -0.0025 0.5
0.0473003 0.02886 0.0025 0.5
0.0473003 0.02886 -0.0025 0.5
0.0555625 0.000555 -0.0025 0.5
0.0555625 0.000555 0.0025 0.5
0.0475467 0.0290968 -0.00143347 0.5
0.0475467 0.0290968 0.00143347 0.5
0.0475467 0.0290968 0.0025 0.5
0.0475467 0.0290968 -0.0025 0.5
0.0558403 0.0002775 0.0025 0.5
0.0558403 0.0002775 -0.0025 0.5
0.0476381 0.029415 1.08454e-19 0.5
0.0561181 0.0002775 0 0.5
0.0476943 0.0298806 0.00209747 0.5
0.0476943 0.0298806 -0.00209747 0.5
0.0476943 0.0298806 0.0025 0.5
0.0476943 0.0298806 -0.0025 0.5
0.0476591 0.02997 0.0025 0.5
0.0476591 0.02997 -0.0025 0.5
0.047726 0.0300277 0.00223994 0.5
0.047726 0.0300277 -0.00223994 0.5
0.047726 0.0300277 0.0025 0.5
0.047726 0.0300277 -0.0025 0.5
0.0563959 0.0002775 0.0025 0.5
0.0563959 0.0002775 -0.0025 0.5
0.0477838 0.0303608 0.0025 0.5
0.0477838 0.0303608 -0.0025 0.5
0.0477743 0.030525 5.64521e-21 0.5
0.0566738 0.000555 -0.0025 0.5
0.0566738 0.000555 0.0025 0.5
0.0569516 0.0002775 0.0025 0.5
0.0569516 0.0002775 -0.0025 0.5
0.0478788 0.030985 -0.00207215 0.5
0.0478788 0.030985 0.00207215 0.5
0.0478788 0.030985 -0.0025 0.5
0.0478788 0.030985 0.0025 0.5
0.0572294 0.0002775 0 0.5
0.0480151 0.03108 0.0025 0.5
0.0480151 0.03108 -0.0025 0.5
0.0481143 0.0314102 0.0025 0.5
0.0481143 0.0314102 -0.0025 0.5
0.0575072 0.0002775 0.0025 0.5
0.0575072 0.0002775 -0.0025 0.5
0.0482033 0.0316264 -8.10988e-21 0.5
0.0482405 0.0317338 -0.0025 0.5
0.0482405 0.0317338 0.0025 0.5
0.057785 0.000555 -0.0025 0.5
0.057785 0.000555 0.0025 0.5
0.0580628 0.0002775 0.0025 0.5
0.0580628 0.0002775 -0.0025 0.5
0.0485053 0.03219 0.0025 0.5
0.0485053 0.03219 -0.0025 0.5
0.0583406 0.0002775 0 0.5
0.048716 0.0323688 0.00169468 0.5
0.048716 0.0323688 -0.00169468 0.5
0.048716 0.0323688 0.0025 0.5
0.048716 0.0323688 -0.0025 0.5
0.0586184 0.0002775 0.0025 0.5
0.0586184 0.0002775 -0.0025 0.5
0.0488112 0.032745 3.77579e-21 0.5
0.0588963 0.000555 -0.0025 0.5
0.0588963 0.000555 0.0025 0.5
0.0488479 0.0332529 -0.00228792 0.5
0.0488479 0.0332529 0.00228792 0.5
0.0488479 0.0332529 0.0025 0.5
0.0488479 0.0332529 -0.0025 0.5
0.048819 0.0333 0.0025 0.5
0.048819 0.0333 -0.0025 0.5
0.048859 0.0333359 0.0023382 0.5
0.048859 0.0333359 -0.0023382 0.5
0.048859 0.0333359 0.0025 0.5
0.048859 0.0333359 -0.0025 0.5
0.0591741 0.0002775 0.0025 0.5
0.0591741 0.0002775 -0.0025 0.5
0.048895 0.0336145 -0.0025 0.5
0.048895 0.0336145 0.0025 0.5
0.0594519 0.0002775 -7.45167e-21 0.5
0.0488918 0.033855 -1.47146e-21 0.5
0.0597297 0.0002775 0.0025 0.5
0.0597297 0.0002775 -0.0025 0.5
0.048977 0.0343281 -0.00213127 0.5
0.048977 0.0343281 0.00213127 0.5
0.048977 0.0343281 0.0025 0.5
0.048977 0.0343281 -0.0025 0.5
0.0490878 0.03441 0.0025 0.5
0.0490878 0.03441 -0.0025 0.5
0.0600075 0.000555 -0.0025 0.5
0.0600075 0.000555 0.0025 0.5
0.0490998 0.0346145 -0.00157863 0.5
0.0490998 0.0346145 0.00157863 0.5
0.0490998 0.0346145 0.0025 0.5
0.0490998 0.0346145 -0.0025 0.5
0.0602853 0.0002775 0.0025 0.5
0.0602853 0.0002775 -0.0025 0.5
0.0492806 0.0351573 0 0.5
0.0605631 0.0002775 -9.93434e-23 0.5
0.0492591 0.0351563 0.0025 0.5
0.0492591 0.0351563 -0.0025 0.5
0.0608409 0.0002775 0.0025 0.5
0.0608409 0.0002775 -0.0025 0.5
0.0495212 0.03552 0.0025 0.5
0.0495212 0.03552 -0.0025 0.5
0.0611187 0.000555 -0.0025 0.5
0.0611187 0.000555 0.0025 0.5
0.0497606 0.0357654 0.00139459 0.5
0.0497606 0.0357654 -0.00139459 0.5
0.0497606 0.0357654 -0.0025 0.5
0.0497606 0.0357654 0.0025 0.5
0.0613966 0.0002775 -0.0025 0.5
0.0613966 0.0002775 0.0025 0.5
0.0498452 0.036075 0 0.5
0.0616744 0.0002775 0 0.5
0.0499062 0.0365301 -0.0020498 0.5
0.0499062 0.0365301 0.0020498 0.5
0.0499062 0.0365301 0.0025 0.5
0.0499062 0.0365301 -0.0025 0.5
0.0498719 0.03663 0.0025 0.5
0.0498719 0.03663 -0.0025 0.5
0.0619522 0.0002775 -0.0025 0.5
0.0619522 0.0002775 0.0025 0.5
0.0499444 0.0366918 0.00222175 0.5
0.0499444 0.0366918 -0.00222175 0.5
0.0499444 0.0366918 0.0025 0.5
0.0499444 0.0366918 -0.0025 0.5
0.06223 0.000555 -0.0025 0.5
0.06223 0.000555 0.0025 0.5
0.0499965 0.037185 0 0.5
0.0625078 0.0002775 0.0025 0.5
0.0625078 0.0002775 -0.0025 0.5
0.0500014 0.0377351 -0.00247795 0.5
0.0500014 0.0377351 0.00247795 0.5
0.0499967 0.03774 0.0025 0.5
0.0499967 0.03774 -0.0025 0.5
0.0500014 0.0377351 0.0025 0.5
0.0500014 0.0377351 -0.0025 0.5
0.0500015 0.0377447 0.0024787 0.5
0.0500015 0.0377447 -0.0024787 0.5
0.0500015 0.0377447 0.0025 0.5
0.0500015 0.0377447 -0.0025 0.5
0.0500063 0.0377831 -0.0025 0.5
0.0500063 0.0377831 0.0025 0.5
0.0627856 0.0002775 3.76374e-21 0.5
0.0500063 0.038295 2.48412e-20 0.5
0.0630634 0.0002775 -0.0025 0.5
0.0630634 0.0002775 0.0025 0.5
0.0501037 0.0387527 -0.0020615 0.5
0.0501037 0.0387527 0.0020615 0.5
0.0501037 0.0387527 0.0025 0.5
0.0501037 0.0387527 -0.0025 0.5
0.0633413 0.000555 -0.0025 0.5
0.0633413 0.000555 0.0025 0.5
0.0502426 0.03885 0.0025 0.5
0.0502426 0.03885 -0.0025 0.5
0.0636191 0.0002775 0.0025 0.5
0.0636191 0.0002775 -0.0025 0.5
0.0503328 0.0391762 0.0025 0.5
0.0503328 0.0391762 -0.0025 0.5
0.0638969 0.0002775 -5.95927e-22 0.5
0.0504172 0.0394063 0 0.5
0.0504491 0.0395177 0.0025 0.5
0.0504491 0.0395177 -0.0025 0.5
0.0641747 0.0002775 0.0025 0.5
0.0641747 0.0002775 -0.0025 0.5
0.0644525 0.000555 -0.0025 0.5
0.0644525 0.000555 0.0025 0.5
0.050657 0.03996 -0.0025 0.5
0.050657 0.03996 0.0025 0.5
0.0647303 0.0002775 0.0025 0.5
0.0647303 0.0002775 -0.0025 0.5
0.0508633 0.0402139 0.00135638 0.5
0.0508633 0.0402139 -0.00135638 0.5
0.0508633 0.0402139 0.0025 0.5
0.0508633 0.0402139 -0.0025 0.5
0.0650081 0.0002775 0 0.5
0.0509281 0.040515 -1.4101e-20 0.5
0.0652859 0.0002775 0.0025 0.5
0.0652859 0.0002775 -0.0025 0.5
0.050981 0.0409337 -0.00188592 0.5
0.050981 0.0409337 0.00188592 0.5
0.050981 0.0409337 0.0025 0.5
0.050981 0.0409337 -0.0025 0.5
0.0509397 0.04107 0.0025 0.5
0.0509397 0.04107 -0.0025 0.5
0.051031 0.0411564 0.00211093 0.5
0.051031 0.0411564 -0.00211093 0.5
0.051031 0.0411564 0.0025 0.5
0.051031 0.0411564 -0.0025 0.5
0.0655638 0.000555 -0.0025 0.5
0.0655638 0.000555 0.0025 0.5
0.0658416 0.0002775 0.0025 0.5
0.0658416 0.0002775 -0.0025 0.5
0.0510783 0.041625 2.30905e-20 0.5
0.0661194 0.0002775 -1.81913e-21 0.5
0.0510964 0.0421589 -0.00240512 0.5
0.0510964 0.0421589 0.00240512 0.5
0.0510964 0.0421589 0.0025 0.5
0.0510964 0.0421589 -0.0025 0.5
0.0510794 0.04218 0.0025 0.5
0.0510794 0.04218 -0.0025 0.5
0.051099 0.0421985 0.00241677 0.5
0.051099 0.0421985 -0.00241677 0.5
0.051099 0.0421985 0.0025 0.5
0.051099 0.0421985 -0.0025 0.5
0.0663972 0.0002775 0.0025 0.5
0.0663972 0.0002775 -0.0025 0.5
0.051116 0.042735 0 0.5
0.066675 0.000555 -0.0025 0.5
0.066675 0.000555 0.0025 0.5
0.0669528 0.0002775 0.0025 0.5
0.0669528 0.0002775 -0.0025 0.5
0.0511168 0.0432893 -0.00249665 0.5
0.0511168 0.0432893 0.00249665 0.5
0.051116 0.04329 0.0025 0.5
0.051116 0.04329 -0.0025 0.5
0.0511168 0.0432893 0.0025 0.5
0.0511168 0.0432893 -0.0025 0.5
0.0511168 0.0432907 0.00249667 0.5
0.0511168 0.0432907 -0.00249667 0.5
0.0511168 0.0432907 0.0025 0.5
0.0511168 0.0432907 -0.0025 0.5
0.0511175 0.0433036 -0.0025 0.5
0.0511175 0.0433036 0.0025 0.5
0.0672306 0.0002775 9.10876e-20 0.5
0.0511175 0.043845 -1.61842e-19 0.5
0.0675084 0.0002775 0.0025 0.5
0.0675084 0.0002775 -0.0025 0.5
0.0511714 0.0443462 -0.00225745 0.5
0.0511714 0.0443462 0.00225745 0.5
0.0511714 0.0443462 0.0025 0.5
0.0511714 0.0443462 -0.0025 0.5
0.0677863 0.000555 -0.0025 0.5
0.0677863 0.000555 0.0025 0.5
0.0512369 0.0444 0.0025 0.5
0.0512369 0.0444 -0.0025 0.5
0.0512056 0.044488 -0.00210363 0.5
0.0512056 0.044488 0.00210363 0.5
0.0512056 0.044488 0.0025 0.5
0.0512056 0.044488 -0.0025 0.5
0.0680641 0.0002775 0.0025 0.5
0.0680641 0.0002775 -0.0025 0.5
0.0512696 0.044955 -1.80421e-20 0.5
0.0683419 0.0002775 1.14121e-19 0.5
0.0513172 0.0453105 -0.00160134 0.5
0.0513172 0.0453105 0.00160134 0.5
0.0513172 0.0453105 0.0025 0.5
0.0513172 0.0453105 -0.0025 0.5
0.0686197 0.0002775 0.0025 0.5
0.0686197 0.0002775 -0.0025 0.5
0.0514731 0.04551 0.0025 0.5
0.0514731 0.04551 -0.0025 0.5
0.0688975 0.000555 -0.0025 0.5
0.0688975 0.000555 0.0025 0.5
0.051496 0.0458881 0.0025 0.5
0.051496 0.0458881 -0.0025 0.5
0.0515224 0.0460494 0 0.5
0.0691753 0.0002775 0.0025 0.5
0.0691753 0.0002775 -0.0025 0.5
0.0515429 0.0461951 0.0025 0.5
0.0515429 0.0461951 -0.0025 0.5
0.0694531 0.0002775 9.36031e-20 0.5
0.0516613 0.04662 0.0025 0.5
0.0516613 0.04662 -0.0025 0.5
0.0697309 0.0002775 0.0025 0.5
0.0697309 0.0002775 -0.0025 0.5
0.0517713 0.0471366 0 0.5
0.0517694 0.0470788 0.0025 0.5
0.0517694 0.0470788 -0.0025 0.5
0.0700088 0.000555 -0.0025 0.5
0.0700088 0.000555 0.0025 0.5
0.0517892 0.047291 0.0025 0.5
0.0517892 0.047291 -0.0025 0.5
0.0702866 0.0002775 0.0025 0.5
0.0702866 0.0002775 -0.0025 0.5
0.0517784 0.04773 0.0025 0.5
0.0517784 0.04773 -0.0025 0.5
0.0705644 0.0002775 2.66209e-19 0.5
0.0518963 0.0480621 -0.0025 0.5
0.0518963 0.0480621 0.0025 0.5
0.0708422 0.0002775 0.0025 0.5
0.0708422 0.0002775 -0.0025 0.5
0.0519094 0.0482933 -1.02554e-20 0.5
0.0519212 0.0485328 0.0025 0.5
0.0519212 0.0485328 -0.0025 0.5
0.07112 0.000555 -0.0025 0.5
0.07112 0.000555 0.0025 0.5
0.051854 0.04884 0.0025 0.5
0.051854 0.04884 -0.0025 0.5
0.0713978 0.0002775 0.0025 0.5
0.0713978 0.0002775 -0.0025 0.5
0.0519672 0.0491013 0.00132311 0.5
0.0519672 0.0491013 -0.00132311 0.5
0.0519672 0.0491013 0.0025 0.5
0.0519672 0.0491013 -0.0025 0.5
0.0716756 0.0002775 9.36031e-20 0.5
0.0519786 0.049395 1.65582e-21 0.5
0.0519864 0.0497079 -0.00140948 0.5
0.0519864 0.0497079 0.00140948 0.5
0.0519864 0.0497079 0.0025 0.5
0.0519864 0.0497079 -0.0025 0.5
0.0719534 0.0002775 0.0025 0.5
0.0719534 0.0002775 -0.0025 0.5
0.0519028 0.04995 0.0025 0.5
0.0519028 0.04995 -0.0025 0.5
0.0722313 0.000555 -0.0025 0.5
0.0722313 0.000555 0.0025 0.5
0.0520088 0.0501697 0.00151025 0.5
0.0520088 0.0501697 -0.00151025 0.5
0.0520088 0.0501697 0.0025 0.5
0.0520088 0.0501697 -0.0025 0.5
0.0520167 0.050505 5.58588e-20 0.5
0.0725091 0.0002775 0.0025 0.5
0.0725091 0.0002775 -0.0025 0.5
0.0520211 0.0508526 -0.00156571 0.5
0.0520211 0.0508526 0.00156571 0.5
0.0727869 0.0002775 1.145e-19 0.5
0.0520211 0.0508526 0.0025 0.5
0.0520211 0.0508526 -0.0025 0.5
0.051932 0.05106 0.0025 0.5
0.051932 0.05106 -0.0025 0.5
0.0520312 0.0512573 -0.00161111 0.5
0.0520312 0.0512573 0.00161111 0.5
0.0520312 0.0512573 0.0025 0.5
0.0520312 0.0512573 -0.0025 0.5
0.0730647 0.0002775 0.0025 0.5
0.0730647 0.0002775 -0.0025 0.5
0.0520356 0.051615 5.84986e-19 0.5
0.0733425 0.000555 -0.0025 0.5
0.0733425 0.000555 0.0025 0.5
0.0520376 0.0519791 -0.00163993 0.5
0.0520376 0.0519791 0.00163993 0.5
0.0520376 0.0519791 0.0025 0.5
0.0520376 0.0519791 -0.0025 0.5
0.0736203 0.0002775 0.0025 0.5
0.0736203 0.0002775 -0.0025 0.5
0.0519466 0.05217 -0.0025 0.5
0.0519466 0.05217 0.0025 0.5
0.0520417 0.0523568 -0.00165851 0.5
0.0520417 0.0523568 0.00165851 0.5
0.0520417 0.0523568 -0.0025 0.5
0.0520417 0.0523568 0.0025 0.5
0.0738981 0.0002775 1.12679e-19 0.5
0.0520437 0.052725 -3.417e-19 0.5
0.0741759 0.0002775 0.0025 0.5
0.0741759 0.0002775 -0.0025 0.5
0.0520434 0.0530949 0.00166617 0.5
0.0520434 0.0530949 -0.00166617 0.5
0.0520434 0.0530949 0.0025 0.5
0.0520434 0.0530949 -0.0025 0.5
0.0519505 0.05328 0.0025 0.5
0.0519505 0.05328 -0.0025 0.5
0.0744538 0.000555 -0.0025 0.5
0.0744538 0.000555 0.0025 0.5
0.0520428 0.0534657 -0.00166347 0.5
0.0520428 0.0534657 0.00166347 0.5
0.0520428 0.0534657 0.0025 0.5
0.0520428 0.0534657 -0.0025 0.5
0.0747316 0.0002775 0.0025 0.5
0.0747316 0.0002775 -0.0025 0.5
0.0520425 0.053835 -4.26075e-18 0.5
0.0750094 0.0002775 1.14375e-19 0.5
0.0520399 0.0542014 -0.00165042 0.5
0.0520399 0.0542014 0.00165042 0.5
0.0520399 0.0542014 0.0025 0.5
0.0520399 0.0542014 -0.0025 0.5
0.0519439 0.05439 0.0025 0.5
0.0519439 0.05439 -0.0025 0.5
0.0752872 0.0002775 0.0025 0.5
0.0752872 0.0002775 -0.0025 0.5
0.0520345 0.0545841 0.00162581 0.5
0.0520345 0.0545841 -0.00162581 0.5
0.0520345 0.0545841 0.0025 0.5
0.0520345 0.0545841 -0.0025 0.5
0.075565 0.000555 -0.0025 0.5
0.075565 0.000555 0.0025 0.5
0.0520319 0.054945 4.29215e-18 0.5
0.0758428 0.0002775 0.0025 0.5
0.0758428 0.0002775 -0.0025 0.5
0.0520275 0.055299 -0.00159466 0.5
0.0520275 0.055299 0.00159466 0.5
0.0520275 0.055299 0.0025 0.5
0.0520275 0.055299 -0.0025 0.5
0.051928 0.0555 -0.0025 0.5
0.051928 0.0555 0.0025 0.5
0.0761206 0.0002775 1.14623e-19 0.5
0.0520173 0.0557112 -0.0015488 0.5
0.0520173 0.0557112 0.0015488 0.5
0.0520173 0.0557112 -0.0025 0.5
0.0520173 0.0557112 0.0025 0.5
0.0763984 0.0002775 0.0025 0.5
0.0763984 0.0002775 -0.0025 0.5
0.052013 0.056055 1.51972e-20 0.5
0.0766763 0.000555 -0.0025 0.5
0.0766763 0.000555 0.0025 0.5
0.0520073 0.0563888 -0.00150356 0.5
0.0520073 0.0563888 0.00150356 0.5
0.0520073 0.0563888 -0.0025 0.5
0.0520073 0.0563888 0.0025 0.5
0.0519042 0.05661 0.0025 0.5
0.0519042 0.05661 -0.0025 0.5
0.0769541 0.0002775 0.0025 0.5
0.0769541 0.0002775 -0.0025 0.5
0.0519912 0.0568473 0.00143122 0.5
0.0519912 0.0568473 -0.00143122 0.5
0.0519912 0.0568473 0.0025 0.5
0.0519912 0.0568473 -0.0025 0.5
0.0772319 0.0002775 1.08196e-19 0.5
0.0519855 0.057165 -2.71635e-18 0.5
0.051978 0.0574696 0.00137194 0.5
0.051978 0.0574696 -0.00137194 0.5
0.051978 0.0574696 0.0025 0.5
0.051978 0.0574696 -0.0025 0.5
0.0775097 0.0002775 0.0025 0.5
0.0775097 0.0002775 -0.0025 0.5
0.0518714 0.05772 0.0025 0.5
0.0518714 0.05772 -0.0025 0.5
0.0777875 0.000555 -0.0025 0.5
0.0777875 0.000555 0.0025 0.5
0.0519514 0.0579971 0.00125199 0.5
0.0519514 0.0579971 -0.00125199 0.5
0.0519514 0.0579971 0.0025 0.5
0.0519514 0.0579971 -0.0025 0.5
0.0780653 0.0002775 0.0025 0.5
0.0780653 0.0002775 -0.0025 0.5
0.0519386 0.0584499 -5.76723e-19 0.5
0.0519358 0.0585374 0.0025 0.5
0.0519358 0.0585374 -0.0025 0.5
0.0783431 0.0002775 8.26565e-20 0.5
0.051829 0.05883 0.0025 0.5
0.051829 0.05883 -0.0025 0.5
0.0786209 0.0002775 0.0025 0.5
0.0786209 0.0002775 -0.0025 0.5
0.0518947 0.0591636 -0.0025 0.5
0.0518947 0.0591636 0.0025 0.5
0.051887 0.0593798 3.06256e-18 0.5
0.0788988 0.000555 -0.0025 0.5
0.0788988 0.000555 0.0025 0.5
0.0518791 0.0595907 0.0025 0.5
0.0518791 0.0595907 -0.0025 0.5
0.0791766 0.0002775 0.0025 0.5
0.0791766 0.0002775 -0.0025 0.5
0.0517785 0.05994 0.0025 0.5
0.0517785 0.05994 -0.0025 0.5
0.0794544 0.0002775 9.54222e-20 0.5
0.0518164 0.0603519 0.0025 0.5
0.0518164 0.0603519 -0.0025 0.5
0.0518103 0.0604909 9.57546e-19 0.5
0.0797322 0.0002775 0.0025 0.5
0.0797322 0.0002775 -0.0025 0.5
0.0518042 0.0606259 0.0025 0.5
0.0518042 0.0606259 -0.0025 0.5
0.08001 0.000555 -0.0025 0.5
0.08001 0.000555 0.0025 0.5
0.051722 0.06105 -0.0025 0.5
0.051722 0.06105 0.0025 0.5
0.0802878 0.0002775 0.0025 0.5
0.0802878 0.0002775 -0.0025 0.5
0.0517128 0.0615654 0.0025 0.5
0.0517128 0.0615654 -0.0025 0.5
0.0517081 0.0616338 -1.39397e-18 0.5
0.051709 0.0616408 0.0025 0.5
0.051709 0.0616408 -0.0025 0.5
0.0805656 0.0002775 1.15842e-19 0.5
0.0516638 0.06216 0.0025 0.5
0.0516638 0.06216 -0.0025 0.5
0.0808434 0.0002775 0.0025 0.5
0.0808434 0.0002775 -0.0025 0.5
0.0811213 0.000555 -0.0025 0.5
0.0811213 0.000555 0.0025 0.5
0.0516049 0.0626469 0.0025 0.5
0.0516049 0.0626469 -0.0025 0.5
0.0516016 0.0627172 3.83988e-20 0.5
0.0515982 0.0627898 0.0025 0.5
0.0515982 0.0627898 -0.0025 0.5
0.0813991 0.0002775 0.0025 0.5
0.0813991 0.0002775 -0.0025 0.5
0.0816769 0.0002775 9.5745e-20 0.5
0.0516083 0.06327 0.0025 0.5
0.0516083 0.06327 -0.0025 0.5
0.0515222 0.0636743 0.0025 0.5
0.0515222 0.0636743 -0.0025 0.5
0.0819547 0.0002775 0.0025 0.5
0.0819547 0.0002775 -0.0025 0.5
0.051516 0.0638292 5.85318e-22 0.5
0.0515097 0.0639882 0.0025 0.5
0.0515097 0.0639882 -0.0025 0.5
0.0822325 0.000555 -0.0025 0.5
0.0822325 0.000555 0.0025 0.5
0.0515566 0.06438 0.0025 0.5
0.0515566 0.06438 -0.0025 0.5
0.0825103 0.0002775 0.0025 0.5
0.0825103 0.0002775 -0.0025 0.5
0.0514554 0.0647175 0.0025 0.5
0.0514554 0.0647175 -0.0025 0.5
0.0827881 0.0002775 8.32524e-20 0.5
0.0514541 0.0649337 8.4046e-22 0.5
0.0514593 0.0651486 0.0025 0.5
0.0514593 0.0651486 -0.0025 0.5
0.0830659 0.0002775 0.0025 0.5
0.0830659 0.0002775 -0.0025 0.5
0.0833437 0.000555 -0.0025 0.5
0.0833437 0.000555 0.0025 0.5
0.05157 0.06549 0.0025 0.5
0.05157 0.06549 -0.0025 0.5
0.0836216 0.0002775 0.0025 0.5
0.0836216 0.0002775 -0.0025 0.5
0.0515496 0.0659216 0.0025 0.5
0.0515496 0.0659216 -0.0025 0.5
0.0516236 0.066063 2.15808e-22 0.5
0.0838994 0.0002775 3.228e-22 0.5
0.0516152 0.0661029 0.0025 0.5
0.0516152 0.0661029 -0.0025 0.5
0.051731 0.0661029 0.0025 0.5
0.051731 0.0661029 -0.0025 0.5
0.0522288 0.0659031 -0.0025 0.5
0.0522288 0.0659031 0.0025 0.5
0.0841772 0.0002775 0.0025 0.5
0.0841772 0.0002775 -0.0025 0.5
0.084455 0.000555 -0.0025 0.5
0.084455 0.000555 0.0025 0.5
0.0525066 0.0663225 0.0025 0.5
0.0525066 0.0663225 -0.0025 0.5
0.0527844 0.0663225 0 0.5
0.0847328 0.0002775 0.0025 0.5
0.0847328 0.0002775 -0.0025 0.5
0.05334 0.066045 -0.0025 0.5
0.05334 0.066045 0.0025 0.5
0.0530622 0.0663225 0.0025 0.5
0.0530622 0.0663225 -0.0025 0.5
0.0850106 0.0002775 0 0.5
0.0536178 0.0663225 0.0025 0.5
0.0536178 0.0663225 -0.0025 0.5
0.0852884 0.0002775 0.0025 0.5
0.0852884 0.0002775 -0.0025 0.5
0.0538956 0.0663225 0 0.5
0.0855663 0.000555 -0.0025 0.5
0.0855663 0.000555 0.0025 0.5
0.0544513 0.066045 -0.0025 0.5
0.0544513 0.066045 0.0025 0.5
0.0541734 0.0663225 0.0025 0.5
0.0541734 0.0663225 -0.0025 0.5
0.0858441 0.0002775 0.0025 0.5
0.0858441 0.0002775 -0.0025 0.5
0.0547291 0.0663225 0.0025 0.5
0.0547291 0.0663225 -0.0025 0.5
0.0861219 0.0002775 0 0.5
0.0550069 0.0663225 0 0.5
0.0555625 0.066045 -0.0025 0.5
0.0555625 0.066045 0.0025 0.5
0.0552847 0.0663225 0.0025 0.5
0.0552847 0.0663225 -0.0025 0.5
0.0863997 0.0002775 0.0025 0.5
0.0863997 0.0002775 -0.0025 0.5
0.0866775 0.000555 -0.0025 0.5
0.0866775 0.000555 0.0025 0.5
0.0558403 0.0663225 0.0025 0.5
0.0558403 0.0663225 -0.0025 0.5
0.0561181 0.0663225 0 0.5
0.0869553 0.0002775 0.0025 0.5
0.0869553 0.0002775 -0.0025 0.5
0.0566738 0.066045 -0.0025 0.5
0.0566738 0.066045 0.0025 0.5
0.0563959 0.0663225 0.0025 0.5
0.0563959 0.0663225 -0.0025 0.5
0.0872331 0.0002775 0 0.5
0.0569516 0.0663225 0.0025 0.5
0.0569516 0.0663225 -0.0025 0.5
0.0875109 0.0002775 0.0025 0.5
0.0875109 0.0002775 -0.0025 0.5
0.0572294 0.0663225 0 0.5
0.057785 0.066045 -0.0025 0.5
0.057785 0.066045 0.0025 0.5
0.0575072 0.0663225 0.0025 0.5
0.0575072 0.0663225 -0.0025 0.5
0.0877888 0.000555 -0.0025 0.5
0.0877888 0.000555 0.0025 0.5
0.0880666 0.0002775 -0.00125 0.5
0.0880666 0.0002775 0.00125 0.5
0.0880666 0.0002775 0.0025 0.5
0.0880666 0.0002775 -0.0025 0.5
0.0580628 0.0663225 -0.0025 0.5
0.0580628 0.0663225 0.0025 0.5
0.0583406 0.0663225 0 0.5
0.0883444 0.0002775 0 0.5