0 	0 	0 	0
0.000446734 	8.51701e-05 	0.00951264 	0
0.000893467 	-0.000113307 	0.0145581 	-9.49371e-27
0.0013402 	-0.000441637 	0.0171885 	-9.55291e-27
0.00178693 	-0.000864663 	0.0187505 	-1.05109e-25
0.00223367 	-0.00128574 	0.0196409 	-2.57868e-25
0.0026804 	-0.00176722 	0.0203876 	-3.59654e-25
0.00312714 	-0.00220279 	0.0209424 	-3.47002e-25
0.00357387 	-0.00266936 	0.0214164 	-3.03213e-25
0.0040206 	-0.00307336 	0.0216265 	-1.64018e-26
0.00446734 	-0.00348613 	0.0217606 	2.93497e-25
0.00491407 	-0.00386124 	0.0216307 	4.54385e-25
0.0053608 	-0.00421656 	0.0213916 	7.0725e-25
0.00580754 	-0.00456079 	0.0209752 	6.28173e-25
0.00625427 	-0.00486346 	0.0204273 	2.39247e-25
0.00670101 	-0.00517606 	0.0198001 	1.375e-26
0.00714774 	-0.0054371 	0.0190296 	-1.49298e-25
0.00759447 	-0.00571103 	0.0182388 	-3.18359e-25
0.00804121 	-0.00594884 	0.0173483 	-1.12215e-25
0.00848794 	-0.00619062 	0.0164454 	-2.07558e-26
0.00893467 	-0.00640935 	0.015478 	-2.9257e-26
0.00938141 	-0.00662073 	0.0144946 	-2.95232e-25
0.00982814 	-0.00682254 	0.0134793 	-2.9253e-25
0.0102749 	-0.00700727 	0.0124414 	-6.14742e-25
0.0107216 	-0.00719333 	0.0113981 	-6.89475e-25
0.0111683 	-0.00735793 	0.0103298 	-3.73527e-25
0.0116151 	-0.00752646 	0.0092695 	-3.71492e-25
0.0120618 	-0.00768207 	0.00819531 	-9.39245e-26
0.0125085 	-0.00783699 	0.00712977 	-2.66333e-26
0.0129553 	-0.00798716 	0.00605892 	4.72219e-26
0.013402 	-0.0081325 	0.00499461 	0
0.0138487 	-0.00827831 	0.0039308 	2.6847e-26
0.0142955 	-0.00841784 	0.00287014 	0
0.0147422 	-0.00856003 	0.00181272 	3.12788e-27
0.0151889 	-0.00869741 	0.000756338 	9.81306e-27
0.0156357 	-0.00883601 	-0.000296529 	0
0.0160824 	-0.0089742 	-0.00134987 	0
0.0165291 	-0.00911104 	-0.00240019 	0
0.0169759 	-0.009249 	-0.00345163 	0
0.0174226 	-0.00938523 	-0.00450181 	-3.82125e-26
0.0178693 	-0.00952004 	-0.00555157 	-1.87222e-25
0.0183161 	-0.00965507 	-0.006603 	-4.23689e-25
0.0187628 	-0.00978402 	-0.00764942 	-5.29125e-25
0.0192095 	-0.00991354 	-0.00869827 	-5.21714e-25
0.0196563 	-0.010035 	-0.00973843 	-4.22998e-25
0.020103 	-0.010152 	-0.0107749 	-2.2773e-25
0.0205497 	-0.0102642 	-0.0118031 	-4.51753e-26
0.0209965 	-0.0103605 	-0.0128124 	-2.52279e-26
0.0214432 	-0.0104614 	-0.0138189 	0
0.0218899 	-0.0105326 	-0.0147849 	0
0.0223367 	-0.0106133 	-0.01575 	0
0.0227834 	-0.0106492 	-0.0166458 	0
0.0232302 	-0.0106914 	-0.0175297 	0
0.0236769 	-0.010688 	-0.0183307 	0
0.0241236 	-0.0106644 	-0.0190721 	0
0.0245704 	-0.0106187 	-0.0197452 	0
0.0250171 	-0.0105125 	-0.020292 	0
0.0254638 	-0.0104189 	-0.0207962 	0
0.0259106 	-0.0102347 	-0.0211118 	0
0.0263573 	-0.0100712 	-0.021383 	0
0.026804 	-0.00980894 	-0.0214309 	0
0.0272508 	-0.00956135 	-0.0214044 	0
0.0276975 	-0.0092166 	-0.0211316 	0
0.0281442 	-0.00885917 	-0.0206931 	3.00881e-27
0.028591 	-0.00840886 	-0.0199634 	0
0.0290377 	-0.00784623 	-0.0188501 	5.10931e-27
0.0294844 	-0.00719029 	-0.0174765 	0
0.0299312 	-0.00614729 	-0.0152521 	-8.61508e-29
0.0303779 	-0.00496071 	-0.0129056 	0
0.0308246 	-0.00326584 	-0.00954266 	7.40586e-27
0.0312714 	-0.00127975 	-0.00604826 	1.20455e-27
0.0317181 	-0.000220821 	-0.0035054 	5.22729e-28
0.0321648 	-8.31708e-05 	-0.0011716 	8.08768e-27
0.0326116 	-8.73542e-06 	-0.000135997 	0
0.0330583 	2.2108e-07 	4.50055e-07 	-6.61687e-29
0.033505 	-7.70871e-08 	5.11327e-07 	0
0.0339518 	-4.52882e-07 	2.10905e-07 	-6.90387e-29
0.0343985 	-5.3446e-07 	5.97645e-08 	0
0.0348452 	-6.41633e-07 	-6.39443e-08 	0
0.035292 	-6.24348e-07 	-1.47656e-07 	0
0.0357387 	-6.21656e-07 	-1.94744e-07 	0
0.0361854 	-5.85998e-07 	-2.3301e-07 	0
0.0366322 	-5.54323e-07 	-2.49829e-07 	0
0.0370789 	-5.18401e-07 	-2.64666e-07 	0
0.0375256 	-4.87094e-07 	-2.6818e-07 	0
0.0379724 	-4.56055e-07 	-2.72531e-07 	0
0.0384191 	-4.29827e-07 	-2.70812e-07 	0
0.0388658 	-4.04891e-07 	-2.70364e-07 	0
0.0393126 	-3.82535e-07 	-2.66666e-07 	0
0.0397593 	-3.62409e-07 	-2.64435e-07 	-1.25338e-29
0.040206 	-3.43499e-07 	-2.59957e-07 	-2.13496e-29
0.0406528 	-3.26928e-07 	-2.56537e-07 	0
0.0410995 	-3.10853e-07 	-2.52003e-07 	-9.40226e-29
0.0415462 	-2.97088e-07 	-2.47926e-07 	0
0.041993 	-2.83291e-07 	-2.43614e-07 	-3.75771e-30
0.0424397 	-2.71709e-07 	-2.39313e-07 	0
0.0428864 	-2.60116e-07 	-2.35287e-07 	7.76592e-29
0.0433332 	-2.49876e-07 	-2.30923e-07 	-7.40104e-30
0.0437799 	-2.39982e-07 	-2.27191e-07 	-6.90274e-29
0.0442266 	-2.30888e-07 	-2.22948e-07 	-6.93063e-29
0.0446734 	-2.22367e-07 	-2.19356e-07 	-1.3565e-28
0.0451201 	-2.14237e-07 	-2.15359e-07 	-1.99064e-28
0.0455668 	-2.06859e-07 	-2.11807e-07 	-9.4266e-29
0.0460136 	-1.9954e-07 	-2.08114e-07 	-1.15607e-28
0.0464603 	-1.93102e-07 	-2.04655e-07 	-4.14495e-29
0.046907 	-1.86639e-07 	-2.01269e-07 	0
0.0473538 	-1.80823e-07 	-1.97884e-07 	0
0.0478005 	-1.7509e-07 	-1.94771e-07 	0
0.0482472 	-1.69792e-07 	-1.91503e-07 	0
0.048694 	-1.64682e-07 	-1.88589e-07 	0
0.0491407 	-1.59827e-07 	-1.85488e-07 	0
0.0495874 	-1.55276e-07 	-1.82673e-07 	0
0.0500342 	-1.50795e-07 	-1.79777e-07 	0
0.0504809 	-1.46718e-07 	-1.7707e-07 	0
0.0509276 	-1.42633e-07 	-1.7438e-07 	0
0.0513744 	-1.38899e-07 	-1.71759e-07 	0
0.0518211 	-1.35182e-07 	-1.69263e-07 	0
0.0522678 	-1.31723e-07 	-1.66726e-07 	0
0.0527146 	-1.28326e-07 	-1.64395e-07 	0
0.0531613 	-1.25101e-07 	-1.61971e-07 	0
0.053608 	-1.22009e-07 	-1.59731e-07 	0
0.0540548 	-1.18981e-07 	-1.57443e-07 	0
0.0545015 	-1.16155e-07 	-1.55294e-07 	0
0.0549482 	-1.1333e-07 	-1.53144e-07 	0
0.055395 	-1.10711e-07 	-1.51071e-07 	0
0.0558417 	-1.0809e-07 	-1.49058e-07 	0
0.0562884 	-1.05631e-07 	-1.47047e-07 	0
0.0567352 	-1.0319e-07 	-1.45158e-07 	0
0.0571819 	-1.00866e-07 	-1.43227e-07 	0
0.0576286 	-9.86036e-08 	-1.41417e-07 	0
0.0580754 	-9.63945e-08 	-1.39578e-07 	0
0.0585221 	-9.42929e-08 	-1.37839e-07 	0
0.0589688 	-9.21958e-08 	-1.36094e-07 	0
0.0594156 	-9.02277e-08 	-1.3442e-07 	0
0.0598623 	-8.82524e-08 	-1.32775e-07 	0
0.060309 	-8.63843e-08 	-1.31149e-07 	0
0.0607558 	-8.45179e-08 	-1.29596e-07 	0
0.0612025 	-8.27348e-08 	-1.28028e-07 	0
0.0616492 	-8.09785e-08 	-1.26542e-07 	0
0.062096 	-7.92674e-08 	-1.25038e-07 	0
0.0625427 	-7.7615e-08 	-1.2361e-07 	0
0.0629894 	-7.59694e-08 	-1.22173e-07 	0
0.0634362 	-7.44086e-08 	-1.20799e-07 	0
0.0638829 	-7.28404e-08 	-1.19437e-07 	0
0.0643296 	-7.13459e-08 	-1.18102e-07 	0
0.0647764 	-6.98478e-08 	-1.16811e-07 	0
0.0652231 	-6.84109e-08 	-1.15519e-07 	0
0.0656698 	-6.69836e-08 	-1.14286e-07 	0
0.0661166 	-6.55952e-08 	-1.13042e-07 	0
0.0665633 	-6.4239e-08 	-1.11856e-07 	0
0.0670101 	-6.2892e-08 	-1.10662e-07 	0
0.0674568 	-6.16006e-08 	-1.09522e-07 	0
0.0679035 	-6.03042e-08 	-1.08387e-07 	0
0.0683503 	-5.90606e-08 	-1.0728e-07 	0
0.068797 	-5.78117e-08 	-1.06201e-07 	0
0.0692437 	-5.66094e-08 	-1.05128e-07 	0
0.0696905 	-5.54076e-08 	-1.04099e-07 	0
0.0701372 	-5.424e-08 	-1.03064e-07 	0
0.0705839 	-5.30892e-08 	-1.02075e-07 	0
0.0710307 	-5.19499e-08 	-1.01081e-07 	0
0.0714774 	-5.0846e-08 	-1.00131e-07 	0
0.0719241 	-4.97401e-08 	-9.9183e-08 	0
0.0723709 	-4.86732e-08 	-9.8264e-08 	0
0.0728176 	-4.76005e-08 	-9.73629e-08 	0
0.0732643 	-4.65648e-08 	-9.64726e-08 	0
0.0737111 	-4.55241e-08 	-9.56151e-08 	0
0.0741578 	-4.45143e-08 	-9.4756e-08 	0
0.0746045 	-4.35116e-08 	-9.39339e-08 	0
0.0750513 	-4.25216e-08 	-9.3109e-08 	0
0.075498 	-4.15541e-08 	-9.23217e-08 	0
0.0759447 	-4.05865e-08 	-9.15344e-08 	0
0.0763915 	-3.96484e-08 	-9.07764e-08 	0
0.0768382 	-3.87047e-08 	-9.00297e-08 	0
0.0772849 	-3.77909e-08 	-8.92967e-08 	0
0.0777317 	-3.68695e-08 	-8.85889e-08 	0
0.0781784 	-3.59749e-08 	-8.78835e-08 	0
0.0786251 	-3.50816e-08 	-8.72084e-08 	0
0.0790719 	-3.42019e-08 	-8.65323e-08 	0
0.0795186 	-3.33356e-08 	-8.58888e-08 	0
0.0799653 	-3.24708e-08 	-8.52444e-08 	0
0.0804121 	-3.16281e-08 	-8.46296e-08 	0
0.0808588 	-3.07804e-08 	-8.40214e-08 	0
0.0813055 	-2.99567e-08 	-8.34296e-08 	0
0.0817523 	-2.91248e-08 	-8.28566e-08 	0
0.082199 	-2.83159e-08 	-8.22896e-08 	0
0.0826457 	-2.75042e-08 	-8.17476e-08 	0
0.0830925 	-2.67065e-08 	-8.12067e-08 	-1.3686e-29
0.0835392 	-2.59155e-08 	-8.06945e-08 	0
0.0839859 	-2.51275e-08 	-8.01808e-08 	-3.79817e-29
0.0844327 	-2.43554e-08 	-7.9697e-08 	0
0.0848794 	-2.35792e-08 	-7.92165e-08 	-1.44673e-31
0.0853261 	-2.28219e-08 	-7.87546e-08 	0
0.0857729 	-2.20565e-08 	-7.83065e-08 	8.43845e-30
0.0862196 	-2.13108e-08 	-7.78675e-08 	9.45025e-30
0.0866663 	-2.0559e-08 	-7.74494e-08 	0
0.0871131 	-1.98217e-08 	-7.70343e-08 	1.1805e-29
0.0875598 	-1.90857e-08 	-7.66447e-08 	0
0.0880065 	-1.8354e-08 	-7.62539e-08 	0
0.0884533 	-1.76327e-08 	-7.58926e-08 	0
0.0889 	-1.69084e-08 	-7.55324e-08 	-1.22925e-29
