# vtk DataFile Version 2.0
track0
ASCII
DATASET POLYDATA
POINTS 12040 float
-0.0205 0.001 1e-05
-0.02052 0.000999985 1e-05
-0.02054 0.000999974 1e-05
-0.02056 0.000999965 1e-05
-0.02058 0.000999959 1e-05
-0.0206 0.000999956 1e-05
-0.0205 0.00367778 1e-05
-0.02052 0.00367778 1e-05
-0.02054 0.00367777 1e-05
-0.02056 0.00367777 1e-05
-0.02058 0.00367777 1e-05
-0.0206 0.00367777 1e-05
-0.0205 0.00635556 1e-05
-0.02052 0.00635555 1e-05
-0.02054 0.00635555 1e-05
-0.02056 0.00635555 1e-05
-0.02058 0.00635555 1e-05
-0.0206 0.00635555 1e-05
-0.0205 0.00903333 1e-05
-0.02052 0.00903333 1e-05
-0.02054 0.00903333 1e-05
-0.02056 0.00903333 1e-05
-0.02058 0.00903333 1e-05
-0.0206 0.00903333 1e-05
-0.0205 0.0117111 1e-05
-0.02052 0.0117111 1e-05
-0.02054 0.0117111 1e-05
-0.02056 0.0117111 1e-05
-0.02058 0.0117111 1e-05
-0.0206 0.0117111 1e-05
-0.0205 0.0143889 1e-05
-0.02052 0.0143889 1e-05
-0.02054 0.0143889 1e-05
-0.02056 0.0143889 1e-05
-0.02058 0.0143889 1e-05
-0.0206 0.0143889 1e-05
-0.0205 0.0170667 1e-05
-0.02052 0.0170667 1e-05
-0.02054 0.0170667 1e-05
-0.02056 0.0170667 1e-05
-0.02058 0.0170667 1e-05
-0.0206 0.0170667 1e-05
-0.0205 0.0197444 1e-05
-0.02052 0.0197444 1e-05
-0.02054 0.0197444 1e-05
-0.02056 0.0197444 1e-05
-0.02058 0.0197444 1e-05
-0.0206 0.0197444 1e-05
-0.0205 0.0224222 1e-05
-0.02052 0.0224222 1e-05
-0.02054 0.0224222 1e-05
-0.02056 0.0224222 1e-05
-0.02058 0.0224222 1e-05
-0.0206 0.0224222 1e-05
-0.0205 0.0251 1e-05
-0.02052 0.0250998 1e-05
-0.02054 0.0250997 1e-05
-0.02056 0.0250995 1e-05
-0.02058 0.0250995 1e-05
-0.0206 0.0250994 1e-05
-0.0205 0.001 1e-05
-0.0202034 0.00100022 1e-05
-0.0199069 0.00100067 1e-05
-0.0196103 0.00100132 1e-05
-0.0193137 0.00100219 1e-05
-0.0190172 0.00100326 1e-05
-0.0187132 0.00100466 1e-05
-0.0184093 0.00100588 1e-05
-0.0181054 0.0010071 1e-05
-0.0178015 0.00100832 1e-05
-0.0174976 0.00100953 1e-05
-0.0172058 0.00101083 1e-05
-0.016914 0.00101193 1e-05
-0.0166222 0.00101303 1e-05
-0.0163305 0.00101413 1e-05
-0.0160387 0.00101522 1e-05
-0.0157586 0.00101636 1e-05
-0.0154784 0.00101744 1e-05
-0.0151983 0.00101856 1e-05
-0.0149182 0.00101971 1e-05
-0.0146381 0.0010209 1e-05
-0.0143744 0.00102208 1e-05
-0.0141107 0.00102327 1e-05
-0.013847 0.00102449 1e-05
-0.0135833 0.00102574 1e-05
-0.0133605 0.00102682 1e-05
-0.0133471 0.00102688 1e-05
-0.0133337 0.00102695 1e-05
-0.0133203 0.00102702 1e-05
-0.0133069 0.00102708 1e-05
-0.0132934 0.00102715 1e-05
-0.0130353 0.00102844 1e-05
-0.0127771 0.00102974 1e-05
-0.0125189 0.00103106 1e-05
-0.0122607 0.00103239 1e-05
-0.0120025 0.00103374 1e-05
-0.0117547 0.00103505 1e-05
-0.0115068 0.00103637 1e-05
-0.0112589 0.00103769 1e-05
-0.0110111 0.00103901 1e-05
-0.0107632 0.00104034 1e-05
-0.0105252 0.00104161 1e-05
-0.0102873 0.00104289 1e-05
-0.0100493 0.00104417 1e-05
-0.00981133 0.00104545 1e-05
-0.00957337 0.00104672 1e-05
-0.00934491 0.00104794 1e-05
-0.00911645 0.00104917 1e-05
-0.00888799 0.00105038 1e-05
-0.00865954 0.0010516 1e-05
-0.00843108 0.00105281 1e-05
-0.00821175 0.00105397 1e-05
-0.00799242 0.00105512 1e-05
-0.00777309 0.00105628 1e-05
-0.00755376 0.00105742 1e-05
-0.00733443 0.00105857 1e-05
-0.00712387 0.00105966 1e-05
-0.0069133 0.00106075 1e-05
-0.00670273 0.00106183 1e-05
-0.00649216 0.00106291 1e-05
-0.0062816 0.00106399 1e-05
-0.00607944 0.00106501 1e-05
-0.00587729 0.00106604 1e-05
-0.00567514 0.00106706 1e-05
-0.00547298 0.00106807 1e-05
-0.00527083 0.00106908 1e-05
-0.00507675 0.00107004 1e-05
-0.00488267 0.00107101 1e-05
-0.0046886 0.00107196 1e-05
-0.00449452 0.00107292 1e-05
-0.00430044 0.00107387 1e-05
-0.00411412 0.00107477 1e-05
-0.0039278 0.00107568 1e-05
-0.00374147 0.00107658 1e-05
-0.00355515 0.00107747 1e-05
-0.00336883 0.00107837 1e-05
-0.00318995 0.00107922 1e-05
-0.00301107 0.00108007 1e-05
-0.00283219 0.00108091 1e-05
-0.00265331 0.00108176 1e-05
-0.00247443 0.0010826 1e-05
-0.0023027 0.0010834 1e-05
-0.00213097 0.00108421 1e-05
-0.00195924 0.00108501 1e-05
-0.0017875 0.00108581 1e-05
-0.00161577 0.00108661 1e-05
-0.0014509 0.00108737 1e-05
-0.00128603 0.00108813 1e-05
-0.00112116 0.00108889 1e-05
-0.000956289 0.00108964 1e-05
-0.000791418 0.0010904 1e-05
-0.000633135 0.00109113 1e-05
-0.000474851 0.00109185 1e-05
-0.000316567 0.00109258 1e-05
-0.000158284 0.0010933 1e-05
0 0.00109402 1e-05
0.000105677 0.00109449 1e-05
0.000211355 0.00109497 1e-05
0.000317032 0.00109544 1e-05
0.00042271 0.00109591 1e-05
0.000528387 0.00109638 1e-05
0.000634886 0.00109684 1e-05
0.000741385 0.0010973 1e-05
0.000847885 0.00109776 1e-05
0.000954384 0.00109821 1e-05
0.00106088 0.00109867 1e-05
0.00116821 0.00109912 1e-05
0.00127554 0.00109957 1e-05
0.00138286 0.00110001 1e-05
0.00149019 0.00110044 1e-05
0.00159752 0.00110087 1e-05
0.00170568 0.0011013 1e-05
0.00181384 0.00110172 1e-05
0.001922 0.00110213 1e-05
0.00203016 0.00110254 1e-05
0.00213833 0.00110293 1e-05
0.00224733 0.00110332 1e-05
0.00235633 0.0011037 1e-05
0.00246533 0.00110408 1e-05
0.00257434 0.00110444 1e-05
0.00268334 0.0011048 1e-05
0.00279319 0.00110515 1e-05
0.00290304 0.00110549 1e-05
0.00301289 0.00110583 1e-05
0.00312274 0.00110616 1e-05
0.00323259 0.00110648 1e-05
0.00334329 0.00110679 1e-05
0.003454 0.0011071 1e-05
0.0035647 0.0011074 1e-05
0.0036754 0.0011077 1e-05
0.00378611 0.00110798 1e-05
0.00389767 0.00110826 1e-05
0.00400924 0.00110853 1e-05
0.0041208 0.0011088 1e-05
0.00423237 0.00110905 1e-05
0.00434393 0.0011093 1e-05
0.00445636 0.00110954 1e-05
0.00456879 0.00110978 1e-05
0.00468123 0.00111001 1e-05
0.00479366 0.00111023 1e-05
0.00490609 0.00111044 1e-05
0.0050194 0.00111064 1e-05
0.0051327 0.00111084 1e-05
0.00524601 0.00111104 1e-05
0.00535932 0.00111122 1e-05
0.00547262 0.0011114 1e-05
0.00558681 0.00111156 1e-05
0.005701 0.00111173 1e-05
0.00581518 0.00111188 1e-05
0.00592937 0.00111203 1e-05
0.00604356 0.00111217 1e-05
0.00615863 0.0011123 1e-05
0.00627371 0.00111243 1e-05
0.00638878 0.00111254 1e-05
0.00650386 0.00111265 1e-05
0.00661893 0.00111276 1e-05
0.0067349 0.00111285 1e-05
0.00685087 0.00111294 1e-05
0.00696684 0.00111302 1e-05
0.00708281 0.0011131 1e-05
0.00719878 0.00111317 1e-05
0.00726966 0.0011132 1e-05
0.00734054 0.00111323 1e-05
0.00741142 0.00111326 1e-05
0.0074823 0.00111329 1e-05
0.00755085 0.00111332 1e-05
0.00759731 0.00111333 1e-05
0.00764377 0.00111334 1e-05
0.00769022 0.00111336 1e-05
0.00773668 0.00111337 1e-05
0.00778313 0.00111338 1e-05
0.00790091 0.0011134 1e-05
0.00801869 0.00111341 1e-05
0.00813647 0.00111342 1e-05
0.00825425 0.00111342 1e-05
0.00837203 0.00111341 1e-05
0.00849073 0.00111339 1e-05
0.00860942 0.00111336 1e-05
0.00872812 0.00111333 1e-05
0.00884682 0.00111329 1e-05
0.00896551 0.00111324 1e-05
0.00908513 0.00111317 1e-05
0.00920475 0.00111311 1e-05
0.00932437 0.00111304 1e-05
0.00944398 0.00111296 1e-05
0.0095636 0.00111287 1e-05
0.00968415 0.00111276 1e-05
0.0098047 0.00111265 1e-05
0.00992525 0.00111254 1e-05
0.0100458 0.00111242 1e-05
0.0101663 0.00111229 1e-05
0.0102878 0.00111214 1e-05
0.0104093 0.00111199 1e-05
0.0105308 0.00111183 1e-05
0.0106523 0.00111167 1e-05
0.0107738 0.0011115 1e-05
0.0108962 0.0011113 1e-05
0.0110186 0.00111111 1e-05
0.0111411 0.00111091 1e-05
0.0112635 0.00111071 1e-05
0.0113859 0.00111049 1e-05
0.0115093 0.00111025 1e-05
0.0116327 0.00111002 1e-05
0.0117561 0.00110977 1e-05
0.0118795 0.00110952 1e-05
0.0120028 0.00110926 1e-05
0.0121272 0.00110898 1e-05
0.0122515 0.0011087 1e-05
0.0123759 0.00110841 1e-05
0.0125002 0.00110811 1e-05
0.0126245 0.00110781 1e-05
0.0127498 0.00110748 1e-05
0.0128752 0.00110715 1e-05
0.0130005 0.00110682 1e-05
0.0131258 0.00110648 1e-05
0.0132511 0.00110612 1e-05
0.0133774 0.00110575 1e-05
0.0135036 0.00110538 1e-05
0.0136299 0.00110499 1e-05
0.0137562 0.0011046 1e-05
0.0138825 0.00110421 1e-05
0.0140098 0.00110378 1e-05
0.014137 0.00110336 1e-05
0.0142643 0.00110293 1e-05
0.0143915 0.00110249 1e-05
0.0145188 0.00110205 1e-05
0.0146471 0.00110158 1e-05
0.0147753 0.00110111 1e-05
0.0149036 0.00110063 1e-05
0.0150318 0.00110014 1e-05
0.0151601 0.00109964 1e-05
0.0152893 0.00109913 1e-05
0.0154186 0.00109861 1e-05
0.0155478 0.00109808 1e-05
0.0156771 0.00109754 1e-05
0.0158063 0.00109699 1e-05
0.0159366 0.00109643 1e-05
0.0160668 0.00109586 1e-05
0.0161971 0.00109528 1e-05
0.0163274 0.00109469 1e-05
0.0164576 0.00109409 1e-05
0.0165889 0.00109348 1e-05
0.0167201 0.00109286 1e-05
0.0168514 0.00109223 1e-05
0.0169827 0.00109159 1e-05
0.0171139 0.00109095 1e-05
0.0172462 0.00109029 1e-05
0.0173785 0.00108962 1e-05
0.0175108 0.00108894 1e-05
0.0176431 0.00108825 1e-05
0.0177754 0.00108755 1e-05
0.0179087 0.00108685 1e-05
0.018042 0.00108613 1e-05
0.0181753 0.00108539 1e-05
0.0183087 0.00108465 1e-05
0.018442 0.0010839 1e-05
0.0185763 0.00108315 1e-05
0.0187107 0.00108238 1e-05
0.018845 0.0010816 1e-05
0.0189794 0.0010808 1e-05
0.0191137 0.00108001 1e-05
0.0192491 0.00107921 1e-05
0.0193845 0.00107839 1e-05
0.0195199 0.00107755 1e-05
0.0196553 0.0010767 1e-05
0.0197907 0.00107585 1e-05
0.0199272 0.00107501 1e-05
0.0200636 0.00107414 1e-05
0.0202001 0.00107325 1e-05
0.0203365 0.00107235 1e-05
0.020473 0.00107145 1e-05
0.0206105 0.00107055 1e-05
0.020748 0.00106963 1e-05
0.0208855 0.00106869 1e-05
0.021023 0.00106774 1e-05
0.0211606 0.0010668 1e-05
0.0212991 0.00106585 1e-05
0.0214377 0.00106488 1e-05
0.0215763 0.00106389 1e-05
0.0217149 0.00106289 1e-05
0.0218535 0.00106189 1e-05
0.0219931 0.0010609 1e-05
0.0221328 0.00105988 1e-05
0.0222724 0.00105883 1e-05
0.0224121 0.00105778 1e-05
0.0225517 0.00105673 1e-05
0.0226925 0.00105569 1e-05
0.0228332 0.00105462 1e-05
0.022974 0.00105352 1e-05
0.0231147 0.00105242 1e-05
0.0232555 0.00105132 1e-05
0.0233973 0.00105023 1e-05
0.0235391 0.0010491 1e-05
0.023681 0.00104796 1e-05
0.0238228 0.0010468 1e-05
0.0239647 0.00104565 1e-05
0.0241076 0.00104451 1e-05
0.0242505 0.00104333 1e-05
0.0243935 0.00104213 1e-05
0.0245364 0.00104092 1e-05
0.0246794 0.00103973 1e-05
0.0248234 0.00103853 1e-05
0.0249675 0.0010373 1e-05
0.0251115 0.00103605 1e-05
0.0252556 0.00103479 1e-05
[...]
POINT_DATA 12040
 FIELD attributes 2
p 1 12040 float
-4.8223 -4.81898 -4.81566 -4.81235 -4.80903 -4.80572
-4.9745 -4.97447 -4.97445 -4.97443 -4.97441 -4.97439
-5.1483 -5.14818 -5.14806 -5.14793 -5.14781 -5.1477
-5.24124 -5.24118 -5.24113 -5.24108 -5.24102 -5.24097
-5.28594 -5.28583 -5.28572 -5.28561 -5.28549 -5.28538
-5.29217 -5.29201 -5.29185 -5.29169 -5.29153 -5.29137
-5.26499 -5.26492 -5.26485 -5.26478 -5.26471 -5.26464
-5.19526 -5.19522 -5.19518 -5.19514 -5.1951 -5.19506
-5.07388 -5.07389 -5.07389 -5.0739 -5.07391 -5.07391
-2.86124 -2.88057 -2.89978 -2.91884 -2.93778 -2.95658
-4.8223 -4.82159 -4.81797 -4.81428 -4.81051 -4.80214 -4.816 -4.83098 -4.84597 -4.86095 -4.88539 -4.90718 -4.93713 -4.96709 -4.99705 -5.02981 -5.0455 -5.06723 -5.08896 -5.11069 -5.13404 -5.15298 -5.17393 -5.19489 -5.21584 -5.23355 -5.23461 -5.23567 -5.23674 -5.2378 -5.23886 -5.26056 -5.28227 -5.30397 -5.32568 -5.34711 -5.36592 -5.38455 -5.40317 -5.4218 -5.43985 -5.45553 -5.47094 -5.48635 -5.50176 -5.51661 -5.53046 -5.54406 -5.55767 -5.57127 -5.58442 -5.59722 -5.60975 -5.62229 -5.63482 -5.64694 -5.65883 -5.67044 -5.68204 -5.69364 -5.70482 -5.7159 -5.72671 -5.73752 -5.74834 -5.75879 -5.76926 -5.77947 -5.78967 -5.79988 -5.80977 -5.81975 -5.82955 -5.83934 -5.84914 -5.85872 -5.86839 -5.8778 -5.88721 -5.89662 -5.90581 -5.91527 -5.92486 -5.93446 -5.94405 -5.95378 -5.96373 -5.97343 -5.98313 -5.99282 -6.00235 -6.01236 -6.0232 -6.03404 -6.04488 -6.0559 -6.06585 -6.07655 -6.08724 -6.09794 -6.10818 -6.11747 -6.12629 -6.13511 -6.14394 -6.15196 -6.1591 -6.16729 -6.17547 -6.18365 -6.19257 -6.20073 -6.20935 -6.21797 -6.22658 -6.23531 -6.24344 -6.25058 -6.25772 -6.26486 -6.27115 -6.27785 -6.28327 -6.28868 -6.2941 -6.29847 -6.3041 -6.30868 -6.31327 -6.31786 -6.3215 -6.32637 -6.33035 -6.33433 -6.33831 -6.34147 -6.34538 -6.34854 -6.3517 -6.35486 -6.35742 -6.36032 -6.36267 -6.36501 -6.36736 -6.36934 -6.3715 -6.3733 -6.37511 -6.37692 -6.37853 -6.38033 -6.38191 -6.3835 -6.38508 -6.38658 -6.38818 -6.38966 -6.39115 -6.39263 -6.39409 -6.39498 -6.39582 -6.39667 -6.39751 -6.39833 -6.39888 -6.39944 -6.39999 -6.40055 -6.40114 -6.40243 -6.40376 -6.40509 -6.40643 -6.40795 -6.40906 -6.41039 -6.41172 -6.41306 -6.41481 -6.41571 -6.41708 -6.41845 -6.41982 -6.4219 -6.42259 -6.42406 -6.42553 -6.427 -6.42955 -6.43006 -6.43166 -6.43326 -6.43486 -6.43787 -6.43816 -6.43986 -6.44155 -6.44324 -6.4467 -6.44678 -6.44858 -6.45038 -6.45218 -6.4561 -6.45604 -6.45798 -6.45992 -6.46186 -6.46622 -6.46607 -6.46815 -6.47023 -6.47231 -6.47704 -6.47684 -6.47906 -6.48128 -6.4835 -6.48855 -6.48834 -6.4907 -6.49306 -6.49559 -6.50075 -6.50084 -6.50309 -6.5056 -6.50855 -6.51366 -6.5141 -6.51626 -6.51892 -6.52224 -6.52729 -6.52808 -6.53021 -6.53301 -6.53666 -6.54164 -6.54279 -6.54492 -6.54787 -6.5518 -6.55671 -6.5582 -6.56038 -6.56347 -6.56764 -6.57247 -6.5743 -6.57656 -6.5798 -6.58416 -6.58892 -6.59107 -6.59345 -6.59683 -6.60134 -6.60605 -6.6085 -6.61101 -6.61453 -6.61916 -6.62383 -6.62656 -6.6293 -6.63298 -6.63761 -6.64224 -6.64524 -6.64824 -6.65205 -6.65667 -6.66129 -6.66453 -6.66778 -6.67171 -6.67634 -6.68096 -6.68446 -6.68795 -6.69201 -6.69663 -6.70125 -6.70497 -6.7087 -6.71286 -6.71746 -6.72206 -6.72599 -6.72991 -6.73416 -6.73874 -6.74332 -6.74739 -6.75146 -6.7558 -6.76038 -6.76497 -6.76916 -6.77336 -6.77778 -6.78239 -6.787 -6.7913 -6.79562 -6.8001 -6.80473 -6.80938 -6.81376 -6.81818 -6.82273 -6.82738 -6.83207 -6.83652 -6.84103 -6.84564 -6.85032 -6.85506 -6.85956 -6.86415 -6.86881 -6.87351 -6.87829 -6.88284 -6.88749 -6.89218 -6.8969 -6.90171 -6.90629 -6.91099 -6.91572 -6.92045 -6.92528 -6.92987 -6.93462 -6.93936 -6.9441 -6.94893 -6.95356 -6.95831 -6.96305 -6.9678 -6.97262 -6.97727 -6.98201 -6.98675 -6.99149 -6.99628 -7.00093 -7.00566 -7.01038 -7.0151 -7.01986 -7.0245 -7.02919 -7.03388 -7.03857 -7.04328 -7.0479 -7.05254 -7.05718 -7.06183 -7.06648 -7.06903 -7.0716 -7.07416 -7.07673 -7.07924 -7.08126 -7.08329 -7.08532 -7.08735 -7.08939 -7.0939 -7.09841 -7.10292 -7.10743 -7.11195 -7.11637 -7.12079 -7.12521 -7.12963 -7.13407 -7.13839 -7.1427 -7.14702 -7.15133 -7.15567 -7.15988 -7.16407 -7.16827 -7.17246 -7.17667 -7.18076 -7.1848 -7.18885 -7.1929 -7.19694 -7.20089 -7.20477 -7.20864 -7.21252 -7.21638 -7.22016 -7.22387 -7.22756 -7.23124 -7.2349 -7.2385 -7.24202 -7.24551 -7.24896 -7.2524 -7.25578 -7.2591 -7.26235 -7.26555 -7.26873 -7.27187 -7.27498 -7.27797 -7.28087 -7.28377 -7.28665 -7.28952 -7.29222 -7.29481 -7.2974 -7.29998 -7.30257 -7.30497 -7.30722 -7.30948 -7.31175 -7.31401 -7.31609 -7.31799 -7.31988 -7.3218 -7.32372 -7.32545 -7.32696 -7.32847 -7.33001 -7.33155 -7.33291 -7.334 -7.33509 -7.33623 -7.33734 -7.33828 -7.33897 -7.33961 -7.34031 -7.34094 -7.34141 -7.3417 -7.34187 -7.3421 -7.3422 -7.34218 -7.34206 -7.34171 -7.34145 -7.34097 -7.34043 -7.33987 -7.33899 -7.33819 -7.3371 -7.33601 -7.33493 -7.33355 -7.3321 -7.33043 -7.32876 -7.32709 -7.32521 -7.32309 -7.3208 -7.31851 -7.31622 -7.31384 -7.31116 -7.30839 -7.30563 -7.30287 -7.30028 -7.30008 -7.29987 -7.29967 -7.29946 -7.29925 -7.29569 -7.29212 -7.28856 -7.285 -7.28131 -7.27719 -7.27291 -7.26864 -7.26437 -7.25984 -7.25514 -7.25013 -7.24511 -7.2401 -7.23467 -7.22938 -7.2236 -7.21781 -7.21196 -7.20566 -7.1996 -7.19317 -7.18658 -7.17976 -7.17263 -7.16575 -7.15868 -7.15127 -7.14342 -7.13544 -7.12771 -7.11999 -7.11168 -7.1028 -7.09393 -7.08533 -7.07673 -7.06753 -7.05774 -7.04795 -7.03844 -7.02893 -7.01883 -7.00809 -6.99736 -6.98691 -6.97645 -6.96534 -6.95371 -6.94201 -6.9306 -6.91892 -6.90683 -6.89445 -6.88175 -6.86935 -6.85643 -6.84332 -6.83018 -6.81646 -6.80297 -6.78882 -6.77468 -6.76054 -6.746 -6.73119 -6.71598 -6.70078 -6.68558 -6.67026 -6.66356 -6.65673 -6.6499 -6.64308 -6.63645 -6.62703 -6.61761 -6.60819 -6.59878 -6.58921 -6.5721 -6.55485 -6.53761 -6.52037 -6.50269 -6.48475 -6.46638 -6.44802 -6.42961 -6.41056 -6.3916 -6.37228 -6.35279 -6.33292 -6.31272 -6.29262 -6.27245 -6.25181 -6.23045 -6.20909 -6.18782 -6.16656 -6.14467 -6.12212 -6.09957 -6.07713 -6.05471 -6.03157 -6.00785 -5.98411 -5.96049 -5.93655 -5.91216 -5.88758 -5.86265 -5.83783 -5.81229 -5.78669 -5.76111 -5.73512 -5.70876 -5.68194 -5.65513 -5.62833 -5.6015 -5.59941 -5.59728 -5.59515 -5.59302 -5.59091 -5.56508 -5.53926 -5.51344 -5.48764 -5.46156 -5.4326 -5.40345 -5.3743 -5.34516 -5.31544 -5.2854 -5.25513 -5.22477 -5.1941 -5.16316 -5.1319 -5.10065 -5.06902 -5.03687 -5.00472 -4.97224 -4.93978 -4.90684 -4.87348 -4.84012 -4.80644 -4.77262 -4.73836 -4.70396 -4.66941 -4.63454 -4.59916 -4.56371 -4.52828 -4.49262 -4.46132 -4.4297 -4.3981 -4.3665 -4.3366 -4.33125 -4.3259 -4.32056 -4.31521 -4.30981 -4.27214 -4.23444 -4.19675 -4.15907 -4.12092 -4.08236 -4.04351 -4.00468 -3.96564 -3.92616 -3.88647 -3.84673 -3.80677 -3.7662 -3.7256 -3.68479 -3.64399 -3.60272 -3.56104 -3.51935 -3.47745 -3.43537 -3.39287 -3.35028 -3.30753 -3.26457 -3.22101 -3.17746 -3.13392 -3.09026 -3.07077 -3.05108 -3.0314 -3.01173 -2.99256 -2.96761 -2.94266 -2.91771 -2.89277 -2.86757 -2.82221 -2.77672 -2.73125 -2.68572 -2.63961 -2.59338 -2.54706 -2.50063 -2.45371 -2.40667 -2.35949 -2.31233 -2.26478 -2.21685 -2.16891 -2.12083 -2.0726 -2.02398 -1.97532 -1.92652 -1.87755 -1.82808 -1.77863 -1.72918 -1.67968 -1.66962 -1.65947 -1.64933 -1.63918 -1.62915 -1.58906 -1.54897 -1.50889 -1.46881 -1.42838 -1.37754 -1.32659 -1.27565 -1.2245 -1.17301 -1.12146 -1.06991 -1.01817 -0.966034 -0.913869 -0.861634 -0.809402 -0.756718 -0.70397 -0.651165 -0.598286 -0.545045 -0.491748 -0.43846 -0.385106 -0.365976 -0.346728 -0.327481 -0.308235 -0.28935 -0.254667 -0.219988 -0.185313 -0.150643 -0.11572 -0.061386 -0.00702733 0.0473213 0.101813 0.156573 0.211375 0.266166 0.321043 0.376166 0.431324 0.486532 0.541773 0.597268 0.65275 0.708266 0.76385 0.819683 0.875506 0.931319 0.987168 0.989628 0.992097 0.994567 0.997036 0.9995 1.05318 1.10686 1.16053 1.21419 1.26812 1.32455 1.38095 1.43732 1.49386 1.55049 1.60713 1.66375 1.72049 1.77721 1.83397 1.89075 1.94762 2.00451 2.0614 2.11828 2.13877 2.15928 2.1798 2.20031 2.22049 2.25705 2.29361 2.33017 2.36673 2.40338 2.46054 2.51758 2.57462 2.63169 2.68885 2.74598 2.8031 2.86018 2.91719 2.97425 3.03129 3.08832 3.14534 3.20234 3.2593 3.28061 3.30191 3.3232 3.34449 3.36544 3.40115 3.43686 3.47256 3.50826 3.54396 3.6009 3.65767 3.71441 3.77111 3.82783 3.88451 3.94118 3.99773 4.05408 4.11048 4.16684 4.22307 4.27926 4.33544 4.39162 4.39967 4.4077 4.41573 4.42375 4.43174 4.47969 4.52764 4.57559 4.62353 4.67136 4.72715 4.78284 4.83839 4.89373 4.94911 5.00443 5.05972 5.11477 5.16971 5.22457 5.264 5.30324 5.34245 5.38166 5.41999 5.43553 5.45107 5.46661 5.48214 5.49762 5.55192 5.60609 5.66026 5.7143 5.76821 5.82201 5.87581 5.92932 5.98253 6.03578 6.08893 6.14183 6.19461 6.24738 6.30012 6.30721 6.31427 6.32131 6.32835 6.33537 6.38065 6.42594 6.47122 6.51645 6.56146 6.61333 6.66515 6.7167 6.76793 6.81919 6.87029 6.92126 6.97194 7.02262 7.07307 7.09528 7.11733 7.13935 7.16136 7.18324 7.2113 7.23935 7.26741 7.29541 7.32322 7.37284 7.42226 7.4716 7.52051 7.56938 7.61813 7.66682 7.71505 7.7632 7.81116 7.8367 7.86202 7.88727 7.91252 7.93774 7.95998 7.98223 8.00447 8.02666 8.04866 8.0957 8.14249 8.18924 8.23555 8.28176 8.32783 8.37387 8.41939 8.46481 8.51002 8.53463 8.55901 8.5833 8.6076 8.63205 8.65242 8.6728 8.69317 8.71349 8.73361 8.77781 8.82175 8.86567 8.90912 8.95244 8.9956 9.03873 9.08132 9.12381 9.16608 9.18909 9.21186 9.23455 9.25724 9.28028 9.29923 9.31819 9.33714 9.35603 9.37472 9.41588 9.45679 9.49767 9.53809 9.57836 9.61843 9.6585 9.698 9.73738 9.77655 9.80032 9.82382 9.84724 9.87066 9.89474 9.90974 9.92474 9.93975 9.95471 9.9695 10.0075 10.0452 10.0829 10.1202 10.1573 10.1942 10.231 10.2674 10.3035 10.3395 10.369 10.3981 10.4271 10.4561 10.4867 10.4926 10.4985 10.5044 10.5103 10.5161 10.5506 10.5851 10.6195 10.6538 10.6876 10.7212 10.7548 10.7879 10.8207 10.8534 10.8858 10.918 10.9499 10.9818 11.0135 11.024 11.0344 11.0448 11.0552 11.0659 11.0864 11.107 11.1276 11.1481 11.1684 11.1986 11.2287 11.2587 11.2883 11.3179 11.347 11.3762 11.405 11.4334 11.4617 11.4897 11.5175 11.5452 11.5729 11.6004 11.6106 11.6207 11.6307 11.6407 11.6513 11.6676 11.684 11.7003 11.7166 11.7326 11.7583 11.7842 11.8101 11.8365 11.8635 11.89 11.9165 11.9372 11.9528 11.9683 11.9832 11.998 12.0236 12.057 12.0911 12.1246 12.143 12.1571 12.1712 12.1846 12.1847 12.185 12.1853 12.1856 12.1859 12.1922 12.1986 12.2049 12.212 12.2234 12.2343 12.2452 12.2552 12.2646 12.2738 12.2822 12.2897 12.2959 12.302 12.3068 12.3086 12.3096 12.3106 12.3116 12.3127 12.3142 12.3157 12.3171 12.3185 12.3193 12.3192 12.3179 12.3166 12.3144 12.3115 12.3068 12.3021 12.2956 12.2875 12.2793 12.2692 12.258 12.2457 12.2332 12.2193 12.2093 12.1979 12.1865 12.175 12.1619 12.1553 12.1487 12.1422 12.1356 12.1283 12.1047 12.0801 12.0553 12.03 12.0026 11.9722 11.9412 11.9081 11.8722 11.8362 11.7969 11.7576 11.7152 11.6695 11.6238 11.5745 11.5227 11.4694 11.4159 11.3595 11.3037 11.2449 11.186 11.1272 11.0528 11.0497 11.0466 11.0436 11.0405 11.0373 10.961 10.8845 10.8079 10.7312 10.651 10.5639 10.4727 10.3814 10.2883 10.1917 10.0894 9.98564 9.87755 9.76312 9.64811 9.52693 9.40569 9.27896 9.14694 9.01479 8.87597 8.73674 8.58617 8.42754 8.26722 8.09927 7.93029 7.76041 7.59009 7.41833 7.23863 7.0285 6.81836 6.60828 6.38122 6.14852 5.93215 5.71574 5.49929 5.28654 5.2079 5.11316 5.01845 4.92379 4.8177 4.60418 4.39043 4.17645 3.96225 3.71516 3.3957 3.13622 2.87597 2.615 2.49324 2.37868 1.94343 1.51333 0.943131 0