# vtk DataFile Version 2.0
track0
ASCII
DATASET POLYDATA
POINTS 12040 float
-0.0205 0.001 1e-05
-0.02052 0.000999985 1e-05
-0.02054 0.000999974 1e-05
-0.02056 0.000999965 1e-05
-0.02058 0.000999959 1e-05
-0.0206 0.000999956 1e-05
-0.0205 0.00367778 1e-05
-0.02052 0.00367778 1e-05
-0.02054 0.00367777 1e-05
-0.02056 0.00367777 1e-05
-0.02058 0.00367777 1e-05
-0.0206 0.00367777 1e-05
-0.0205 0.00635556 1e-05
-0.02052 0.00635555 1e-05
-0.02054 0.00635555 1e-05
-0.02056 0.00635555 1e-05
-0.02058 0.00635555 1e-05
-0.0206 0.00635555 1e-05
-0.0205 0.00903333 1e-05
-0.02052 0.00903333 1e-05
-0.02054 0.00903333 1e-05
-0.02056 0.00903333 1e-05
-0.02058 0.00903333 1e-05
-0.0206 0.00903333 1e-05
-0.0205 0.0117111 1e-05
-0.02052 0.0117111 1e-05
-0.02054 0.0117111 1e-05
-0.02056 0.0117111 1e-05
-0.02058 0.0117111 1e-05
-0.0206 0.0117111 1e-05
-0.0205 0.0143889 1e-05
-0.02052 0.0143889 1e-05
-0.02054 0.0143889 1e-05
-0.02056 0.0143889 1e-05
-0.02058 0.0143889 1e-05
-0.0206 0.0143889 1e-05
-0.0205 0.0170667 1e-05
-0.02052 0.0170667 1e-05
-0.02054 0.0170667 1e-05
-0.02056 0.0170667 1e-05
-0.02058 0.0170667 1e-05
-0.0206 0.0170667 1e-05
-0.0205 0.0197444 1e-05
-0.02052 0.0197444 1e-05
-0.02054 0.0197444 1e-05
-0.02056 0.0197444 1e-05
-0.02058 0.0197444 1e-05
-0.0206 0.0197444 1e-05
-0.0205 0.0224222 1e-05
-0.02052 0.0224222 1e-05
-0.02054 0.0224222 1e-05
-0.02056 0.0224222 1e-05
-0.02058 0.0224222 1e-05
-0.0206 0.0224222 1e-05
-0.0205 0.0251 1e-05
-0.02052 0.0250998 1e-05
-0.02054 0.0250997 1e-05
-0.02056 0.0250995 1e-05
-0.02058 0.0250995 1e-05
-0.0206 0.0250994 1e-05
-0.0205 0.001 1e-05
-0.0202034 0.00100022 1e-05
-0.0199069 0.00100067 1e-05
-0.0196103 0.00100132 1e-05
-0.0193137 0.00100219 1e-05
-0.0190172 0.00100326 1e-05
-0.0187132 0.00100466 1e-05
-0.0184093 0.00100588 1e-05
-0.0181054 0.0010071 1e-05
-0.0178015 0.00100832 1e-05
-0.0174976 0.00100953 1e-05
-0.0172058 0.00101083 1e-05
-0.016914 0.00101193 1e-05
-0.0166222 0.00101303 1e-05
-0.0163305 0.00101413 1e-05
-0.0160387 0.00101522 1e-05
-0.0157586 0.00101636 1e-05
-0.0154784 0.00101744 1e-05
-0.0151983 0.00101856 1e-05
-0.0149182 0.00101971 1e-05
-0.0146381 0.0010209 1e-05
-0.0143744 0.00102208 1e-05
-0.0141107 0.00102327 1e-05
-0.013847 0.00102449 1e-05
-0.0135833 0.00102574 1e-05
-0.0133605 0.00102682 1e-05
-0.0133471 0.00102688 1e-05
-0.0133337 0.00102695 1e-05
-0.0133203 0.00102702 1e-05
-0.0133069 0.00102708 1e-05
-0.0132934 0.00102715 1e-05
-0.0130353 0.00102844 1e-05
-0.0127771 0.00102974 1e-05
-0.0125189 0.00103106 1e-05
-0.0122607 0.00103239 1e-05
-0.0120025 0.00103374 1e-05
-0.0117547 0.00103505 1e-05
-0.0115068 0.00103637 1e-05
-0.0112589 0.00103769 1e-05
-0.0110111 0.00103901 1e-05
-0.0107632 0.00104034 1e-05
-0.0105252 0.00104161 1e-05
-0.0102873 0.00104289 1e-05
-0.0100493 0.00104417 1e-05
-0.00981133 0.00104545 1e-05
-0.00957337 0.00104672 1e-05
-0.00934491 0.00104794 1e-05
-0.00911645 0.00104917 1e-05
-0.00888799 0.00105038 1e-05
-0.00865954 0.0010516 1e-05
-0.00843108 0.00105281 1e-05
-0.00821175 0.00105397 1e-05
-0.00799242 0.00105512 1e-05
-0.00777309 0.00105628 1e-05
-0.00755376 0.00105742 1e-05
-0.00733443 0.00105857 1e-05
-0.00712387 0.00105966 1e-05
-0.0069133 0.00106075 1e-05
-0.00670273 0.00106183 1e-05
-0.00649216 0.00106291 1e-05
-0.0062816 0.00106399 1e-05
-0.00607944 0.00106501 1e-05
-0.00587729 0.00106604 1e-05
-0.00567514 0.00106706 1e-05
-0.00547298 0.00106807 1e-05
-0.00527083 0.00106908 1e-05
-0.00507675 0.00107004 1e-05
-0.00488267 0.00107101 1e-05
-0.0046886 0.00107196 1e-05
-0.00449452 0.00107292 1e-05
-0.00430044 0.00107387 1e-05
-0.00411412 0.00107477 1e-05
-0.0039278 0.00107568 1e-05
-0.00374147 0.00107658 1e-05
-0.00355515 0.00107747 1e-05
-0.00336883 0.00107837 1e-05
-0.00318995 0.00107922 1e-05
-0.00301107 0.00108007 1e-05
-0.00283219 0.00108091 1e-05
-0.00265331 0.00108176 1e-05
-0.00247443 0.0010826 1e-05
-0.0023027 0.0010834 1e-05
-0.00213097 0.00108421 1e-05
-0.00195924 0.00108501 1e-05
-0.0017875 0.00108581 1e-05
-0.00161577 0.00108661 1e-05
-0.0014509 0.00108737 1e-05
-0.00128603 0.00108813 1e-05
-0.00112116 0.00108889 1e-05
-0.000956289 0.00108964 1e-05
-0.000791418 0.0010904 1e-05
-0.000633135 0.00109113 1e-05
-0.000474851 0.00109185 1e-05
-0.000316567 0.00109258 1e-05
-0.000158284 0.0010933 1e-05
0 0.00109402 1e-05
0.000105677 0.00109449 1e-05
0.000211355 0.00109497 1e-05
0.000317032 0.00109544 1e-05
0.00042271 0.00109591 1e-05
0.000528387 0.00109638 1e-05
0.000634886 0.00109684 1e-05
0.000741385 0.0010973 1e-05
0.000847885 0.00109776 1e-05
0.000954384 0.00109821 1e-05
0.00106088 0.00109867 1e-05
0.00116821 0.00109912 1e-05
0.00127554 0.00109957 1e-05
0.00138286 0.00110001 1e-05
0.00149019 0.00110044 1e-05
0.00159752 0.00110087 1e-05
0.00170568 0.0011013 1e-05
0.00181384 0.00110172 1e-05
0.001922 0.00110213 1e-05
0.00203016 0.00110254 1e-05
0.00213833 0.00110293 1e-05
0.00224733 0.00110332 1e-05
0.00235633 0.0011037 1e-05
0.00246533 0.00110408 1e-05
0.00257434 0.00110444 1e-05
0.00268334 0.0011048 1e-05
0.00279319 0.00110515 1e-05
0.00290304 0.00110549 1e-05
0.00301289 0.00110583 1e-05
0.00312274 0.00110616 1e-05
0.00323259 0.00110648 1e-05
0.00334329 0.00110679 1e-05
0.003454 0.0011071 1e-05
0.0035647 0.0011074 1e-05
0.0036754 0.0011077 1e-05
0.00378611 0.00110798 1e-05
0.00389767 0.00110826 1e-05
0.00400924 0.00110853 1e-05
0.0041208 0.0011088 1e-05
0.00423237 0.00110905 1e-05
0.00434393 0.0011093 1e-05
0.00445636 0.00110954 1e-05
0.00456879 0.00110978 1e-05
0.00468123 0.00111001 1e-05
0.00479366 0.00111023 1e-05
0.00490609 0.00111044 1e-05
0.0050194 0.00111064 1e-05
0.0051327 0.00111084 1e-05
0.00524601 0.00111104 1e-05
0.00535932 0.00111122 1e-05
0.00547262 0.0011114 1e-05
0.00558681 0.00111156 1e-05
0.005701 0.00111173 1e-05
0.00581518 0.00111188 1e-05
0.00592937 0.00111203 1e-05
0.00604356 0.00111217 1e-05
0.00615863 0.0011123 1e-05
0.00627371 0.00111243 1e-05
0.00638878 0.00111254 1e-05
0.00650386 0.00111265 1e-05
0.00661893 0.00111276 1e-05
0.0067349 0.00111285 1e-05
0.00685087 0.00111294 1e-05
0.00696684 0.00111302 1e-05
0.00708281 0.0011131 1e-05
0.00719878 0.00111317 1e-05
0.00726966 0.0011132 1e-05
0.00734054 0.00111323 1e-05
0.00741142 0.00111326 1e-05
0.0074823 0.00111329 1e-05
0.00755085 0.00111332 1e-05
0.00759731 0.00111333 1e-05
0.00764377 0.00111334 1e-05
0.00769022 0.00111336 1e-05
0.00773668 0.00111337 1e-05
0.00778313 0.00111338 1e-05
0.00790091 0.0011134 1e-05
0.00801869 0.00111341 1e-05
0.00813647 0.00111342 1e-05
0.00825425 0.00111342 1e-05
0.00837203 0.00111341 1e-05
0.00849073 0.00111339 1e-05
0.00860942 0.00111336 1e-05
0.00872812 0.00111333 1e-05
0.00884682 0.00111329 1e-05
0.00896551 0.00111324 1e-05
0.00908513 0.00111317 1e-05
0.00920475 0.00111311 1e-05
0.00932437 0.00111304 1e-05
0.00944398 0.00111296 1e-05
0.0095636 0.00111287 1e-05
0.00968415 0.00111276 1e-05
0.0098047 0.00111265 1e-05
0.00992525 0.00111254 1e-05
0.0100458 0.00111242 1e-05
0.0101663 0.00111229 1e-05
0.0102878 0.00111214 1e-05
0.0104093 0.00111199 1e-05
0.0105308 0.00111183 1e-05
0.0106523 0.00111167 1e-05
0.0107738 0.0011115 1e-05
0.0108962 0.0011113 1e-05
0.0110186 0.00111111 1e-05
0.0111411 0.00111091 1e-05
0.0112635 0.00111071 1e-05
0.0113859 0.00111049 1e-05
0.0115093 0.00111025 1e-05
0.0116327 0.00111002 1e-05
0.0117561 0.00110977 1e-05
0.0118795 0.00110952 1e-05
0.0120028 0.00110926 1e-05
0.0121272 0.00110898 1e-05
0.0122515 0.0011087 1e-05
0.0123759 0.00110841 1e-05
0.0125002 0.00110811 1e-05
0.0126245 0.00110781 1e-05
0.0127498 0.00110748 1e-05
0.0128752 0.00110715 1e-05
0.0130005 0.00110682 1e-05
0.0131258 0.00110648 1e-05
0.0132511 0.00110612 1e-05
0.0133774 0.00110575 1e-05
0.0135036 0.00110538 1e-05
0.0136299 0.00110499 1e-05
0.0137562 0.0011046 1e-05
0.0138825 0.00110421 1e-05
0.0140098 0.00110378 1e-05
0.014137 0.00110336 1e-05
0.0142643 0.00110293 1e-05
0.0143915 0.00110249 1e-05
0.0145188 0.00110205 1e-05
0.0146471 0.00110158 1e-05
0.0147753 0.00110111 1e-05
0.0149036 0.00110063 1e-05
0.0150318 0.00110014 1e-05
0.0151601 0.00109964 1e-05
0.0152893 0.00109913 1e-05
0.0154186 0.00109861 1e-05
0.0155478 0.00109808 1e-05
0.0156771 0.00109754 1e-05
0.0158063 0.00109699 1e-05
0.0159366 0.00109643 1e-05
0.0160668 0.00109586 1e-05
0.0161971 0.00109528 1e-05
0.0163274 0.00109469 1e-05
0.0164576 0.00109409 1e-05
0.0165889 0.00109348 1e-05
0.0167201 0.00109286 1e-05
0.0168514 0.00109223 1e-05
0.0169827 0.00109159 1e-05
0.0171139 0.00109095 1e-05
0.0172462 0.00109029 1e-05
0.0173785 0.00108962 1e-05
0.0175108 0.00108894 1e-05
0.0176431 0.00108825 1e-05
0.0177754 0.00108755 1e-05
0.0179087 0.00108685 1e-05
0.018042 0.00108613 1e-05
0.0181753 0.00108539 1e-05
0.0183087 0.00108465 1e-05
0.018442 0.0010839 1e-05
0.0185763 0.00108315 1e-05
0.0187107 0.00108238 1e-05
0.018845 0.0010816 1e-05
0.0189794 0.0010808 1e-05
0.0191137 0.00108001 1e-05
0.0192491 0.00107921 1e-05
0.0193845 0.00107839 1e-05
0.0195199 0.00107755 1e-05
0.0196553 0.0010767 1e-05
0.0197907 0.00107585 1e-05
0.0199272 0.00107501 1e-05
0.0200636 0.00107414 1e-05
0.0202001 0.00107325 1e-05
0.0203365 0.00107235 1e-05
0.020473 0.00107145 1e-05
0.0206105 0.00107055 1e-05
0.020748 0.00106963 1e-05
0.0208855 0.00106869 1e-05
0.021023 0.00106774 1e-05
0.0211606 0.0010668 1e-05
0.0212991 0.00106585 1e-05
0.0214377 0.00106488 1e-05
0.0215763 0.00106389 1e-05
0.0217149 0.00106289 1e-05
0.0218535 0.00106189 1e-05
0.0219931 0.0010609 1e-05
0.0221328 0.00105988 1e-05
0.0222724 0.00105883 1e-05
0.0224121 0.00105778 1e-05
0.0225517 0.00105673 1e-05
0.0226925 0.00105569 1e-05
0.0228332 0.00105462 1e-05
0.022974 0.00105352 1e-05
0.0231147 0.00105242 1e-05
0.0232555 0.00105132 1e-05
0.0233973 0.00105023 1e-05
0.0235391 0.0010491 1e-05
0.023681 0.00104796 1e-05
0.0238228 0.0010468 1e-05
0.0239647 0.00104565 1e-05
0.0241076 0.00104451 1e-05
0.0242505 0.00104333 1e-05
0.0243935 0.00104213 1e-05
0.0245364 0.00104092 1e-05
0.0246794 0.00103973 1e-05
0.0248234 0.00103853 1e-05
0.0249675 0.0010373 1e-05
0.0251115 0.00103605 1e-05
0.0252556 0.00103479 1e-05
[...]
POINT_DATA 12040
 FIELD attributes 1
U 3 12040 float
10.0004 	0.00731826 	0 10.0004 	0.00585461 	0 10.0003 	0.00439095 	0 10.0002 	0.0029273 	0 10.0001 	0.00146365 	0 10 	0 	0
10.0001 	0.000879095 	0 10 	0.000703276 	0 10 	0.000527457 	0 10 	0.000351638 	0 10 	0.000175819 	0 10 	0 	0
10.0001 	0.00046584 	0 10.0001 	0.000372482 	0 10.0001 	0.000279123 	0 10 	0.000185765 	0 10 	9.24064e-05 	0 10 	0 	0
10 	0.000265836 	0 10 	0.000212669 	0 10 	0.000159502 	0 10 	0.000106334 	0 10 	5.31672e-05 	0 10 	0 	0
10 	8.01626e-05 	0 10 	6.41301e-05 	0 10 	4.80976e-05 	0 10 	3.20651e-05 	0 10 	1.60325e-05 	0 10 	0 	0
10 	-2.64624e-05 	0 10 	-2.11699e-05 	0 10 	-1.58774e-05 	0 10 	-1.0585e-05 	0 10 	-5.29248e-06 	0 10 	0 	0
10 	-0.000216343 	0 10 	-0.000173074 	0 10 	-0.000129806 	0 10 	-8.65371e-05 	0 10 	-4.32686e-05 	0 10 	0 	0
10 	-0.000377999 	0 10 	-0.000302399 	0 10 	-0.000226799 	0 10 	-0.000151199 	0 10 	-7.55997e-05 	0 10 	0 	0
9.99999 	-0.000427682 	0 9.99999 	-0.000342145 	0 9.99999 	-0.000256609 	0 10 	-0.000171073 	0 10 	-8.55363e-05 	0 10 	0 	0
9.17387 	0.0870992 	0 9.1308 	0.0696794 	0 9.08741 	0.0522592 	0 9.04368 	0.0348389 	0 8.99962 	0.0174184 	0 8.95524 	0 	0
10.0004 	0.00731826 	0 10.0024 	0.0151682 	0 10.0045 	0.0221867 	0 10.0065 	0.029161 	0 10.0085 	0.0360913 	0 10.0135 	0.0463062 	0 10.0163 	0.0402048 	0 10.0207 	0.0401627 	0 10.0252 	0.0401208 	0 10.0296 	0.0400791 	0 10.0356 	0.0445393 	0 10.0385 	0.037898 	0 10.0424 	0.0378533 	0 10.0464 	0.0378086 	0 10.0504 	0.0377638 	0 10.0545 	0.0408648 	0 10.0567 	0.0387858 	0 10.0592 	0.0400942 	0 10.0616 	0.0414042 	0 10.0641 	0.0427159 	0 10.0662 	0.0451738 	0 10.0677 	0.0452843 	0 10.0691 	0.0464865 	0 10.0704 	0.0476898 	0 10.0718 	0.0488943 	0 10.0729 	0.0499126 	0 10.073 	0.0499743 	0 10.073 	0.0500361 	0 10.0731 	0.0500979 	0 10.0732 	0.0501596 	0 10.0732 	0.0502121 	0 10.0738 	0.0508378 	0 10.0743 	0.0514576 	0 10.0748 	0.0520779 	0 10.0753 	0.0526988 	0 10.0758 	0.0531556 	0 10.0757 	0.0534502 	0 10.0754 	0.0536394 	0 10.075 	0.0538288 	0 10.0747 	0.0540182 	0 10.0742 	0.0539692 	0 10.0737 	0.0541129 	0 10.0726 	0.0540882 	0 10.0716 	0.0540635 	0 10.0705 	0.0540388 	0 10.0689 	0.0537449 	0 10.0686 	0.0538236 	0 10.0669 	0.0536885 	0 10.0653 	0.0535534 	0 10.0637 	0.0534183 	0 10.0612 	0.0529967 	0 10.0612 	0.0530487 	0 10.0591 	0.0528521 	0 10.0571 	0.0526554 	0 10.0551 	0.0524586 	0 10.0516 	0.0519627 	0 10.0522 	0.0520128 	0 10.0499 	0.0517892 	0 10.0476 	0.0515655 	0 10.0453 	0.0513418 	0 10.0407 	0.0508108 	0 10.0421 	0.0508797 	0 10.0396 	0.0506499 	0 10.0371 	0.0504201 	0 10.0346 	0.0501902 	0 10.0289 	0.0496394 	0 10.0313 	0.0497325 	0 10.0287 	0.0495124 	0 10.0261 	0.0492922 	0 10.0234 	0.0490719 	0 10.0166 	0.0485234 	0 10.0202 	0.0486493 	0 10.0175 	0.0484378 	0 10.0148 	0.0482262 	0 10.012 	0.0480146 	0 10.004 	0.0474557 	0 10.0088 	0.0476118 	0 10.0061 	0.0474481 	0 10.0034 	0.0472844 	0 10.0007 	0.0471206 	0 9.99142 	0.0466215 	0 9.9976 	0.0468437 	0 9.99492 	0.0466894 	0 9.99225 	0.0465351 	0 9.98957 	0.0463808 	0 9.97915 	0.0458349 	0 9.98671 	0.0460574 	0 9.98411 	0.0460127 	0 9.98151 	0.045968 	0 9.97892 	0.0459233 	0 9.96733 	0.0455343 	0 9.97634 	0.0458101 	9.13484e-22 9.97433 	0.0456503 	5.91774e-21 9.97233 	0.0454904 	1.09221e-20 9.97031 	0.0453305 	1.59267e-20 9.95824 	0.0447194 	1.35254e-20 9.96847 	0.0448292 	9.30013e-20 9.96666 	0.0445218 	8.63135e-20 9.96485 	0.0442144 	7.96222e-20 9.96303 	0.043907 	7.29274e-20 9.95075 	0.0432269 	-1.4807e-20 9.96083 	0.0431836 	-4.01119e-20 9.95908 	0.04289 	-4.46231e-20 9.95732 	0.0425964 	-4.91329e-20 9.95555 	0.0423027 	-5.36411e-20 9.94348 	0.0417343 	-2.1153e-20 9.9531 	0.0415281 	-1.86078e-20 9.95119 	0.0409667 	-1.29545e-20 9.94928 	0.0404052 	-7.30151e-21 9.94737 	0.0398437 	-1.64898e-21 9.93551 	0.0390621 	6.93931e-21 9.94472 	0.038746 	-5.6614e-21 9.94261 	0.0379384 	-2.40326e-20 9.9405 	0.0371307 	-4.24057e-20 9.93839 	0.0363228 	-6.07809e-20 9.92663 	0.0352518 	-8.66719e-20 9.93527 	0.0350021 	-1.22256e-19 9.93281 	0.0341832 	-1.10047e-19 9.93035 	0.033364 	-9.78303e-20 9.92788 	0.0325447 	-8.56064e-20 9.91612 	0.0313407 	-2.95462e-20 9.92402 	0.0312141 	3.36882e-20 9.92117 	0.0304733 	4.69964e-20 9.91831 	0.0297323 	6.02953e-20 9.91545 	0.0289911 	7.35851e-20 9.90376 	0.027763 	3.63328e-20 9.91083 	0.0276789 	-4.54137e-20 9.9076 	0.0269753 	-5.14e-20 9.90436 	0.0262713 	-5.73722e-20 9.90111 	0.0255672 	-6.33302e-20 9.88958 	0.0243497 	-3.35032e-22 9.89572 	0.0242282 	5.90257e-20 9.89207 	0.0235318 	4.97449e-20 9.88842 	0.0228351 	4.04499e-20 9.88476 	0.0221381 	3.11408e-20 9.87348 	0.0209682 	-2.83392e-20 9.87848 	0.0207821 	-8.20286e-20 9.87438 	0.0200927 	-1.03903e-19 9.87027 	0.0194029 	-1.25771e-19 9.86616 	0.018713 	-1.47635e-19 9.85521 	0.017623 	-1.34959e-19 9.85885 	0.0173674 	-1.53573e-19 9.85427 	0.0166891 	-1.41311e-19 9.84969 	0.0160106 	-1.29045e-19 9.84511 	0.0153318 	-1.16774e-19 9.83466 	0.0143378 	-8.25505e-20 9.83668 	0.0140198 	-6.92891e-20 9.83162 	0.0133583 	-5.10637e-20 9.82656 	0.0126965 	-3.28399e-20 9.8215 	0.0120344 	-1.46179e-20 9.81179 	0.0111402 	1.97904e-21 9.81188 	0.0107546 	0 9.80637 	0.0101054 	0 9.80084 	0.00945595 	0 9.79531 	0.00880621 	0 9.78663 	0.00800726 	0 9.78445 	0.00753992 	-1.64402e-20 9.77847 	0.00689731 	-3.51145e-20 9.77249 	0.00625439 	-5.37904e-20 9.7665 	0.00561116 	-7.24679e-20 9.7592 	0.00490786 	-9.16995e-20 9.75687 	0.00459393 	-9.50441e-20 9.75297 	0.00420808 	-9.54882e-20 9.74907 	0.0038221 	-9.59304e-20 9.74517 	0.003436 	-9.63708e-20 9.74139 	0.00306246 	-9.67949e-20 9.7388 	0.00280786 	-9.75242e-20 9.73621 	0.0025532 	-9.82537e-20 9.73362 	0.00229848 	-9.89834e-20 9.73102 	0.00204371 	-9.97134e-20 9.7259 	0.00167544 	-9.9704e-20 9.72129 	0.00114686 	-7.44396e-20 9.71435 	0.000514159 	-4.57791e-20 9.70739 	-0.000118932 	-1.7128e-20 9.70042 	-0.000752409 	1.15139e-20 9.68455 	-0.00177684 	4.91177e-20 9.68537 	-0.00204953 	4.99849e-20 9.67799 	-0.00267615 	5.11114e-20 9.6706 	-0.00330318 	5.22358e-20 9.66321 	-0.00393063 	5.33581e-20 9.64067 	-0.0051989 	5.65944e-20 9.64679 	-0.00524596 	4.45871e-20 9.639 	-0.00586648 	3.25773e-20 9.6312 	-0.00648747 	2.05664e-20 9.62339 	-0.0071089 	8.55439e-21 9.59453 	-0.00857713 	-1.07193e-21 9.60564 	-0.00844149 	-8.04927e-21 9.59746 	-0.00905638 	-1.95089e-20 9.58928 	-0.00967175 	-3.09673e-20 9.58108 	-0.0102876 	-4.24247e-20 9.54636 	-0.0119041 	-5.38974e-20 9.56207 	-0.011636 	-5.36975e-20 9.55353 	-0.0122474 	-6.09623e-20 9.54498 	-0.0128593 	-6.8224e-20 9.53642 	-0.0134717 	-7.54827e-20 9.49645 	-0.0151822 	-9.41565e-20 9.51626 	-0.0148323 	-1.49076e-19 9.50738 	-0.0154404 	-1.39727e-19 9.4985 	-0.0160491 	-1.3039e-19 9.4896 	-0.0166583 	-1.21066e-19 9.44507 	-0.018403 	-4.10531e-20 9.4684 	-0.0180226 	-2.6203e-20 9.45921 	-0.018627 	-1.83632e-20 9.45001 	-0.019232 	-1.05227e-20 9.4408 	-0.0198376 	-2.68138e-21 9.39242 	-0.0215589 	0 9.41869 	-0.0211963 	0 9.40922 	-0.021798 	0 9.39973 	-0.0224004 	0 9.39023 	-0.0230034 	0 9.33877 	-0.024651 	0 9.36736 	-0.0243529 	1.56262e-21 9.35763 	-0.0249539 	8.85431e-21 9.34789 	-0.0255556 	1.61452e-20 9.33813 	-0.0261579 	2.34354e-20 9.28432 	-0.0276843 	4.12045e-20 9.31467 	-0.0275001 	1.58928e-19 9.3047 	-0.0281009 	1.61814e-19 9.29472 	-0.0287024 	1.64713e-19 9.28473 	-0.0293045 	1.67627e-19 9.22929 	-0.0306576 	4.13928e-20 9.26083 	-0.0306302 	2.20929e-20 9.25066 	-0.0312294 	1.55742e-20 9.24047 	-0.0318293 	9.05477e-21 9.22756 	-0.0324611 	3.78944e-21 9.17386 	-0.0335634 	1.74081e-20 9.20195 	-0.0337708 	1.03613e-19 9.19575 	-0.0343257 	1.13981e-19 9.18538 	-0.0349232 	1.15185e-19 9.16829 	-0.0355615 	9.99902e-20 9.11821 	-0.0363979 	3.96953e-21 9.14294 	-0.036823 	-9.80606e-20 9.14019 	-0.0373799 	-1.28411e-19 9.12966 	-0.0379747 	-1.38517e-19 9.10911 	-0.0385688 	-1.27406e-19 9.0625 	-0.0391602 	-6.09773e-20 9.08407 	-0.0397827 	-1.76455e-19 9.08421 	-0.0403846 	-2.16632e-19 9.07354 	-0.0409763 	-2.18861e-19 9.0502 	-0.0414818 	-1.7171e-19 9.00687 	-0.0418507 	-4.66287e-20 9.0255 	-0.0426502 	-2.46613e-20 9.02802 	-0.0433342 	-1.07845e-20 9.01723 	-0.0439229 	-3.59199e-21 8.9917 	-0.0443017 	0 8.95148 	-0.044471 	0 8.96737 	-0.0454266 	0 8.9718 	-0.0462242 	0 8.96092 	-0.0468098 	0 8.93376 	-0.0470307 	2.01405e-21 8.89643 	-0.0470234 	5.28721e-21 8.90981 	-0.0481154 	2.16636e-21 8.91574 	-0.0490522 	0 8.90479 	-0.0496349 	0 8.87648 	-0.0496727 	2.39907e-21 8.84183 	-0.049511 	5.67633e-21 8.85293 	-0.0507201 	2.55498e-21 8.85999 	-0.0518159 	1.18279e-21 8.84898 	-0.0523957 	7.70614e-21 8.81997 	-0.0522319 	2.42075e-20 8.7878 	-0.0519375 	4.24603e-20 8.79682 	-0.0532457 	1.66449e-19 8.8047 	-0.0545153 	2.8386e-19 8.79366 	-0.0550923 	2.87273e-19 8.7643 	-0.0547138 	1.66952e-19 8.7344 	-0.0543067 	4.29656e-20 8.74155 	-0.055697 	2.49752e-20 8.74864 	-0.0570887 	6.98597e-21 8.73736 	-0.0576235 	2.95072e-22 8.70955 	-0.0571235 	3.44633e-21 8.68174 	-0.056623 	6.59744e-21 8.68719 	-0.0580799 	3.60589e-21 8.6926 	-0.0595382 	6.15121e-22 8.68169 	-0.060043 	2.06121e-21 8.65577 	-0.0594674 	-1.81778e-21 8.62987 	-0.0588914 	-5.69583e-21 8.6338 	-0.0604006 	-4.85856e-20 8.63769 	-0.0619114 	-9.14789e-20 8.62719 	-0.0623862 	-9.28184e-20 8.60301 	-0.0617505 	-5.35769e-20 8.57885 	-0.0611142 	-1.43335e-20 8.58144 	-0.0626643 	8.36953e-20 8.58397 	-0.064216 	1.81719e-19 8.57391 	-0.0646627 	1.90163e-19 8.55132 	-0.063982 	1.08519e-19 8.52873 	-0.0633008 	2.68742e-20 8.53013 	-0.0648883 	1.56303e-20 8.53147 	-0.0664774 	4.38296e-21 8.52189 	-0.0668975 	4.84957e-22 8.50072 	-0.0661781 	5.04904e-21 8.47957 	-0.0654581 	9.61488e-21 8.47992 	-0.0670696 	4.14633e-21 8.48022 	-0.0686826 	-1.32722e-21 8.47113 	-0.0690763 	-2.06039e-20 8.45125 	-0.0683316 	-7.00747e-20 8.43139 	-0.0675864 	-1.19548e-19 8.43082 	-0.0692066 	-2.49032e-19 8.43019 	-0.0708284 	-3.7851e-19 8.42161 	-0.0711974 	-3.63545e-19 8.4029 	-0.0704457 	-2.15128e-19 8.38421 	-0.0696934 	-6.67118e-20 8.38282 	-0.0713128 	5.58471e-20 8.38137 	-0.0729302 	1.78083e-19 8.37302 	-0.0732457 	1.75718e-19 8.35567 	-0.0725359 	8.94779e-20 8.33803 	-0.0717903 	3.51787e-22 8.33593 	-0.073403 	-8.81009e-20 8.33294 	-0.0748367 	-1.65488e-19 8.32474 	-0.0751586 	-1.74668e-19 8.30955 	-0.0746161 	-1.1317e-19 8.29287 	-0.0738863 	-3.63829e-20 8.29014 	-0.0754892 	-2.52722e-20 8.28591 	-0.0767387 	-1.42588e-20 8.27785 	-0.0770685 	-3.49209e-21 8.26454 	-0.0766973 	1.37509e-20 8.24873 	-0.0759891 	3.41048e-20 8.24544 	-0.0775795 	1.2546e-20 8.2402 	-0.0786471 	-2.39742e-21 8.23227 	-0.0789864 	-8.13094e-21 8.2206 	-0.0787878 	-3.06335e-21 8.20558 	-0.0781065 	1.16935e-20 8.2018 	-0.0796837 	-4.64969e-21 8.19576 	-0.0805743 	-1.53848e-20 8.18797 	-0.0809247 	-2.17082e-20 8.17772 	-0.0808981 	-3.37133e-20 8.16342 	-0.0802472 	-5.51178e-20 8.1592 	-0.0818109 	5.21651e-20 8.15255 	-0.0825303 	8.572e-20 8.14487 	-0.0828932 	8.81333e-20 8.13585 	-0.0830364 	6.94041e-20 8.12222 	-0.0824188 	-2.2452e-20 8.1176 	-0.0839692 	6.81307e-20 8.1105 	-0.0845242 	8.46221e-20 8.10294 	-0.0849009 	8.78256e-20 8.09498 	-0.0852111 	8.55491e-20 8.08195 	-0.0846292 	1.01745e-20 8.07699 	-0.0861669 	-6.38857e-22 8.06956 	-0.0865648 	-4.72313e-22 8.06211 	-0.0869566 	-2.45995e-22 8.05464 	-0.0873487 	-1.97e-23 8.04259 	-0.0868858 	1.79667e-20 8.03703 	-0.0882522 	0 8.02969 	-0.0886603 	0 8.02234 	-0.0890686 	0 8.01497 	-0.0894771 	0 8.00412 	-0.0891965 	1.49597e-20 7.99809 	-0.090393 	0 7.99084 	-0.0908188 	0 7.98358 	-0.0912448 	0 7.97629 	-0.0916711 	0 7.9665 	-0.0915688 	0 7.96011 	-0.0926035 	0 7.95295 	-0.0930482 	0 7.94577 	-0.0934932 	0 7.93857 	-0.0939384 	0 7.92969 	-0.0940103 	-8.27208e-21 7.92305 	-0.0948911 	0 7.91597 	-0.095356 	0 7.90886 	-0.0958211 	0 7.90174 	-0.0962865 	0 7.89365 	-0.0965286 	-1.01602e-20 7.88686 	-0.0972631 	0 7.87984 	-0.0977491 	0 7.8728 	-0.0982355 	0 7.86575 	-0.0987221 	0 7.85836 	-0.0991302 	-3.64491e-21 7.85452 	-0.0995024 	-4.81863e-21 7.85063 	-0.0997872 	-1.05467e-20 7.84672 	-0.100072 	-1.62752e-20 7.84282 	-0.100357 	-2.2004e-20 7.83899 	-0.100636 	-2.76023e-20 7.83581 	-0.100862 	-3.18265e-20 7.83263 	-0.101087 	-3.60504e-20 7.82944 	-0.101313 	-4.0274e-20 7.82625 	-0.101539 	-4.44975e-20 7.82341 	-0.101696 	-4.87239e-20 7.81619 	-0.102292 	-4.73489e-20 7.80908 	-0.102826 	-4.67272e-20 7.80195 	-0.10336 	-4.61027e-20 7.7948 	-0.103894 	-4.54756e-20 7.78878 	-0.104207 	-4.73448e-20 7.7813 	-0.104965 	-3.70325e-20 7.77424 	-0.105524 	-2.67076e-20 7.76716 	-0.106082 	-1.63813e-20 7.76005 	-0.106641 	-6.05361e-21 7.75485 	-0.106832 	0 7.7471 	-0.107749 	-2.64359e-21 7.74007 	-0.108334 	-7.38965e-21 7.73302 	-0.108918 	-1.2135e-20 7.72595 	-0.109503 	-1.68796e-20 7.72154 	-0.109578 	-2.159e-20 7.71352 	-0.110652 	-5.03878e-20 7.70652 	-0.111263 	-6.98855e-20 7.69949 	-0.111875 	-8.93849e-20 7.69244 	-0.112488 	-1.08886e-19 7.6888 	-0.112454 	-1.01152e-19 7.68051 	-0.113679 	-7.88612e-20 7.67353 	-0.114319 	-6.78795e-20 7.66652 	-0.11496 	-5.68915e-20 7.65949 	-0.115601 	-4.58972e-20 7.6566 	-0.115465 	-6.7816e-20 7.64804 	-0.116831 	-8.16769e-20 7.64105 	-0.11751 	-6.38612e-20 7.63406 	-0.118181 	-4.56522e-20 7.62757 	-0.118754 	-2.566e-20 7.62488 	-0.118622 	7.18585e-21 7.61635 	-0.120001 	1.14982e-20 7.60905 	-0.120845 	8.45368e-21 7.60206 	-0.121547 	3.4645e-21 7.59635 	-0.12201 	0 7.59359 	-0.12193 	0 7.58508 	-0.123323 	0 7.57747 	-0.124328 	0 7.57047 	-0.125062 	0 7.56552 	-0.125422 	0 7.56268 	-0.125394 	0 7.55419 	-0.126803 	0 7.54625 	-0.127965 	-6.74343e-21 7.53925 	-0.128734 	-2.41995e-20 7.53502 	-0.128996 	-4.17076e-20 7.5321 	-0.129021 	-5.92409e-20 7.52362 	-0.130448 	-4.03265e-20 7.51536 	-0.131764 	-2.06703e-20 7.50833 	-0.132567 	2.39397e-21 7.50481 	-0.132737 	8.84058e-21 7.5018 	-0.132816 	1.28968e-20 7.49332 	-0.134263 	4.49842e-20 7.48478 	-0.13571 	7.707e-20 7.47795 	-0.13652 	9.4105e-20 7.47484 	-0.136653 	7.93965e-20 7.47173 	-0.136786 	6.46866e-20 7.46323 	-0.138253 	4.10201e-20 7.45469 	-0.139721 	1.73453e-20 7.44827 	-0.14056 	2.49238e-21 7.44506 	-0.140747 	1.17124e-20 7.44184 	-0.140934 	2.09333e-20 7.43332 	-0.142424 	8.33931e-20 7.42476 	-0.143915 	1.45856e-19 7.41873 	-0.144784 	1.46504e-19 7.41541 	-0.145025 	8.46633e-20 7.41207 	-0.145265 	2.28207e-20 7.40353 	-0.14678 	1.43838e-20 7.39494 	-0.148294 	5.95052e-21 7.38929 	-0.149196 	6.11615e-21 7.38583 	-0.14949 	1.51148e-20 7.38237 	-0.149785 	2.41145e-20 7.3738 	-0.151324 	8.51127e-20 7.36517 	-0.152864 	1.46114e-19 7.35988 	-0.1538 	1.46796e-19 7.35629 	-0.154147 	8.64457e-20 7.35268 	-0.154495 	2.60936e-20 7.34407 	-0.156062 	1.79036e-20 7.3358 	-0.15756 	9.70503e-21 7.33069 	-0.158505 	1.4119e-21 7.32672 	-0.158999 	0 7.32297 	-0.159401 	0 7.3143 	-0.160994 	0 7.30676 	-0.162387 	0 7.30153 	-0.163374 	0 7.29708 	-0.164049 	0 7.29317 	-0.164503 	0 7.28444 	-0.166126 	0 7.2776 	-0.167417 	0 7.27224 	-0.168445 	0 7.26731 	-0.169298 	5.27133e-21 7.26323 	-0.169806 	2.09187e-20 7.25443 	-0.171457 	3.66013e-21 7.24826 	-0.17265 	6.67532e-21 7.24277 	-0.17372 	1.51489e-20 7.23735 	-0.174749 	2.39622e-20 7.23309 	-0.175309 	3.66365e-20 7.2243 	-0.176977 	1.19758e-19 7.2187 	-0.178089 	1.24227e-19 7.21306 	-0.1792 	1.28675e-19 7.20739 	-0.180312 	1.331e-19 7.20272 	-0.181015 	4.92303e-20 7.19461 	-0.182579 	1.24408e-19 7.18886 	-0.183732 	1.12697e-19 7.18307 	-0.184885 	1.00964e-19 7.17724 	-0.186038 	8.92086e-20 7.17205 	-0.186924 	3.78967e-20 7.16462 	-0.188386 	3.25837e-20 7.1587 	-0.18958 	3.30561e-20 7.15275 	-0.190775 	3.35335e-20 7.14675 	-0.191969 	3.40161e-20 7.14103 	-0.193035 	4.44583e-20 7.13461 	-0.194325 	4.78306e-20 7.12889 	-0.195486 	4.54778e-20 7.12313 	-0.196648 	4.31111e-20 7.11734 	-0.197809 	4.07304e-20 7.11186 	-0.1989 	3.84813e-20 7.1114 	-0.198988 	3.84191e-20 7.11094 	-0.199076 	3.83568e-20 7.11049 	-0.199164 	3.82945e-20 7.11003 	-0.199251 	3.82322e-20 7.10965 	-0.199331 	3.84793e-20 7.1032 	-0.200613 	3.24446e-20 7.09675 	-0.201887 	2.59659e-20 7.09026 	-0.203161 	1.94955e-20 7.08372 	-0.204435 	1.30333e-20 7.07839 	-0.205578 	8.36684e-22 7.07106 	-0.207025 	-2.46108e-22 7.06441 	-0.208339 	-1.74409e-22 7.05772 	-0.209653 	-1.02685e-22 7.05099 	-0.210967 	-3.09349e-23 7.04665 	-0.212028 	0 7.03841 	-0.213638 	-4.87138e-21 7.03157 	-0.214991 	-1.83725e-20 7.02467 	-0.216344 	-3.18679e-20 7.01773 	-0.217698 	-4.53575e-20 7.01438 	-0.218677 	-5.56719e-20 7.00522 	-0.22045 	-4.36949e-20 6.99815 	-0.221842 	-2.87478e-20 6.99104 	-0.223233 	-1.37948e-20 6.98449 	-0.224563 	4.47985e-23 6.98154 	-0.225523 	7.23219e-21 6.97208 	-0.227342 	9.71429e-22 6.96413 	-0.228887 	8.74929e-21 6.95679 	-0.230316 	2.24217e-20 6.95127 	-0.231558 	3.92089e-20 6.94808 	-0.232562 	5.99452e-20 6.93839 	-0.234412 	3.83409e-20 6.92945 	-0.236123 	1.91005e-20 6.92187 	-0.237589 	4.06162e-21 6.9174 	-0.238742 	-2.19841e-21 6.91395 	-0.239788 	-5.46186e-21 6.90404 	-0.241668 	-5.604e-20 6.89406 	-0.243546 	-1.06383e-19 6.88648 	-0.245023 	-1.07522e-19 6.88282 	-0.24611 	-6.77548e-20 6.87912 	-0.247196 	-2.79885e-20 6.86896 	-0.249106 	-6.8335e-20 6.85873 	-0.251015 	-1.08689e-19 6.85143 	-0.252532 	-1.0841e-19 6.8475 	-0.253657 	-6.60738e-20 6.84353 	-0.254782 	-2.37361e-20 6.83312 	-0.25672 	-6.62114e-20 6.82264 	-0.258658 	-1.08692e-19 6.8156 	-0.260215 	-1.04734e-19 6.81139 	-0.261378 	-5.67483e-20 6.80715 	-0.26254 	-8.75886e-21 6.79648 	-0.264505 	-6.03758e-21 6.7859 	-0.266454 	-3.30973e-21 6.77923 	-0.268021 	-3.6903e-22 6.77447 	-0.269265 	0 6.76994 	-0.270462 	0 6.759 	-0.272453 	0 6.74957 	-0.274292 	0 6.74263 	-0.275888 	0 6.73668 	-0.277311 	0 6.73187 	-0.278542 	0 6.72065 	-0.280557 	0 6.71239 	-0.282285 	-2.25499e-21 6.70515 	-0.283908 	-5.3242e-21 6.698 	-0.28551 	-7.72759e-21 6.69289 	-0.286773 	2.95379e-22 6.68177 	-0.288774 	-5.07194e-20 6.67431 	-0.290424 	-4.75809e-20 6.66678 	-0.292074 	-4.44209e-20 6.65921 	-0.293723 	-4.12393e-20 6.65297 	-0.295147 	-5.61618e-21 6.64307 	-0.297028 	-7.32132e-21 6.63531 	-0.298703 	1.20757e-21 6.62749 	-0.300376 	9.73775e-21 6.61961 	-0.30205 	1.82692e-20 6.61209 	-0.303657 	2.43187e-20 6.60808 	-0.304429 	3.25802e-20 6.60471 	-0.305139 	3.26588e-20 6.60134 	-0.30585 	3.27343e-20 6.59795 	-0.30656 	3.28069e-20 6.59465 	-0.30725 	3.28744e-20 6.58962 	-0.308238 	3.37404e-20 6.58456 	-0.309226 	3.46036e-20 6.57948 	-0.310213 	3.5464e-20 6.57438 	-0.311201 	3.63215e-20 6.56989 	-0.312112 	4.00372e-20 6.56073 	-0.313911 	4.06558e-20 6.55182 	-0.315625 	3.85048e-20 6.54285 	-0.317338 	3.63588e-20 6.53382 	-0.31905 	3.42177e-20 6.52648 	-0.320554 	1.91694e-20 6.51638 	-0.32252 	3.32116e-20 6.50713 	-0.324251 	2.72542e-20 6.4978 	-0.325982 	2.13084e-20 6.48866 	-0.327684 	1.3314e-20 6.48189 	-0.329101 	-1.48692e-20 6.47119 	-0.331138 	-7.87301e-21 6.4612 	-0.332979 	-6.88569e-21 6.45152 	-0.334726 	-8.78175e-21 6.44321 	-0.336306 	-9.35831e-21 6.43609 	-0.337741 	-8.78563e-21 6.42502 	-0.339789 	-7.45846e-21 6.41401 	-0.3418 	-5.59629e-21 6.40396 	-0.34356 	-6.7501e-23 6.39652 	-0.345014 	5.08437e-21 6.38906 	-0.346464 	1.02351e-20 6.3776 	-0.34852 	6.047e-21 6.36606 	-0.350576 	1.86278e-21 6.35634 	-0.352334 	0 6.34858 	-0.353797 	0 6.34076 	-0.35526 	0 6.32891 	-0.357321 	0 6.31698 	-0.359383 	0 6.30752 	-0.36116 	0 6.29936 	-0.362642 	0 6.29117 	-0.364115 	0 6.27892 	-0.36618 	0 6.26775 	-0.368117 	1.87093e-21 6.25811 	-0.369878 	6.32731e-21 6.24883 	-0.371539 	1.07911e-20 6.24027 	-0.373018 	1.52671e-20 6.22761 	-0.375085 	1.17115e-20 6.21744 	-0.376871 	1.21751e-20 6.20742 	-0.378633 	1.29865e-20 6.19732 	-0.380394 	1.38038e-20 6.18803 	-0.381957 	1.5897e-20 6.17618 	-0.38389 	3.52228e-21 6.16584 	-0.385651 	-2.33209e-21 6.15543 	-0.387412 	-8.17387e-21 6.14494 	-0.389172 	-1.4003e-20 6.13444 	-0.390918 	-1.89969e-20 6.13352 	-0.391064 	-1.86568e-20 6.13271 	-0.391197 	-1.84172e-20 6.1319 	-0.391331 	-1.81775e-20 6.13109 	-0.391464 	-1.79379e-20 6.13028 	-0.391597 	-1.76995e-20 6.12078 	-0.393225 	-1.70836e-20 6.11122 	-0.394854 	-1.64842e-20 6.1016 	-0.396481 	-1.59012e-20 6.09192 	-0.398109 	-1.53348e-20 6.08234 	-0.399587 	-4.51787e-21 6.07211 	-0.401