# f_l  POINT_DATA 1191
#  x  y  z  f_l
0.0695313 0.00222 0.0025 0.5
0.0695313 0.00222 -0.0025 0.5
0.069562 0.00111 0.0025 0.5
0.069562 0.00111 -0.0025 0.5
0.0696387 0.00166233 0 0.5
0.0695464 0.00333 0.0025 0.5
0.0695464 0.00333 -0.0025 0.5
0.0696446 0.00147373 0.0025 0.5
0.0696446 0.00147373 -0.0025 0.5
0.0696366 0.00184825 0.0025 0.5
0.0696366 0.00184825 -0.0025 0.5
0.0696523 0.00277615 1.94236e-19 0.5
0.0697131 0.000725499 6.20025e-20 0.5
0.0696505 0.00257787 -0.0025 0.5
0.0696505 0.00257787 0.0025 0.5
0.0695614 0.00444 0.0025 0.5
0.0695614 0.00444 -0.0025 0.5
0.0697092 0.000810748 0.0025 0.5
0.0697092 0.000810748 -0.0025 0.5
0.0696539 0.00297559 -0.0025 0.5
0.0696539 0.00297559 0.0025 0.5
0.0696668 0.00388622 2.07974e-19 0.5
0.069665 0.00367333 0.0025 0.5
0.069665 0.00367333 -0.0025 0.5
0.0696687 0.00410034 0.0025 0.5
0.0696687 0.00410034 -0.0025 0.5
0.0695792 0.00555 0.0025 0.5
0.0695792 0.00555 -0.0025 0.5
0.0696833 0.00499657 3.89411e-19 0.5
0.069681 0.00476735 0.0025 0.5
0.069681 0.00476735 -0.0025 0.5
0.0696857 0.00522736 0.0025 0.5
0.0696857 0.00522736 -0.0025 0.5
0.0696008 0.00666 0.0025 0.5
0.0696008 0.00666 -0.0025 0.5
0.0697028 0.00610703 6.28337e-20 0.5
0.0696998 0.00585856 0.0025 0.5
0.0696998 0.00585856 -0.0025 0.5
0.069706 0.00635754 0.0025 0.5
0.069706 0.00635754 -0.0025 0.5
0.0700088 0.000809206 -0.0025 0.5
0.0700088 0.000809206 0.0025 0.5
0.0697253 0.00721757 2.85972e-20 0.5
0.0696261 0.00777 0.0025 0.5
0.0696261 0.00777 -0.0025 0.5
0.0697215 0.0069469 0.0025 0.5
0.0697215 0.0069469 -0.0025 0.5
0.0697293 0.00749082 0.0025 0.5
0.0697293 0.00749082 -0.0025 0.5
0.0697456 0.00803281 0.00131615 0.5
0.0697456 0.00803281 -0.00131615 0.5
0.06975 0.008325 1.31784e-19 0.5
0.0697456 0.00803281 -0.0025 0.5
0.0697456 0.00803281 0.0025 0.5
0.0696548 0.00888 0.0025 0.5
0.0696548 0.00888 -0.0025 0.5
0.0697551 0.00862665 -0.00135877 0.5
0.0697551 0.00862665 0.00135877 0.5
0.0697551 0.00862665 -0.0025 0.5
0.0697551 0.00862665 0.0025 0.5
0.0702866 0.0002775 0.0025 0.5
0.0702866 0.0002775 -0.0025 0.5
0.0697715 0.00911699 0.00143246 0.5
0.0697715 0.00911699 -0.00143246 0.5
0.0697715 0.00911699 0.0025 0.5
0.0697715 0.00911699 -0.0025 0.5
0.0697767 0.009435 3.35505e-20 0.5
0.0696862 0.00999 0.0025 0.5
0.0696862 0.00999 -0.0025 0.5
0.0697826 0.00976414 -0.00148261 0.5
0.0697826 0.00976414 0.00148261 0.5
0.0697826 0.00976414 0.0025 0.5
0.0697826 0.00976414 -0.0025 0.5
0.0697981 0.0102004 0.00155203 0.5
0.0697981 0.0102004 -0.00155203 0.5
0.0705644 0.0002775 2.66209e-19 0.5
0.0697981 0.0102004 0.0025 0.5
0.0697981 0.0102004 -0.0025 0.5
0.0698041 0.010545 6.65911e-20 0.5
0.0697185 0.0111 0.0025 0.5
0.0697185 0.0111 -0.0025 0.5
0.0698104 0.0109018 -0.00160734 0.5
0.0698104 0.0109018 0.00160734 0.5
0.0698104 0.0109018 0.0025 0.5
0.0698104 0.0109018 -0.0025 0.5
0.0698237 0.0112849 -0.00166721 0.5
0.0698237 0.0112849 0.00166721 0.5
0.0698237 0.0112849 -0.0025 0.5
0.0698237 0.0112849 0.0025 0.5
0.06983 0.011655 -7.64321e-19 0.5
0.0697669 0.01221 0.0025 0.5
0.0697669 0.01221 -0.0025 0.5
0.0708422 0.0002775 0.0025 0.5
0.0708422 0.0002775 -0.0025 0.5
0.0698469 0.0120483 -0.00177158 0.5
0.0698469 0.0120483 0.00177158 0.5
0.0698469 0.0120483 0.0025 0.5
0.0698469 0.0120483 -0.0025 0.5
0.0698567 0.0123619 -0.00181579 0.5
0.0698567 0.0123619 0.00181579 0.5
0.0698567 0.0123619 0.0025 0.5
0.0698567 0.0123619 -0.0025 0.5
0.0698744 0.012765 8.14325e-19 0.5
0.0698385 0.01332 0.0025 0.5
0.0698385 0.01332 -0.0025 0.5
0.069896 0.0132074 -0.00199266 0.5
0.069896 0.0132074 0.00199266 0.5
0.07112 0.000555 -0.0025 0.5
0.07112 0.000555 0.0025 0.5
0.069896 0.0132074 0.0025 0.5
0.069896 0.0132074 -0.0025 0.5
0.0699029 0.0134257 0.00202384 0.5
0.0699029 0.0134257 -0.00202384 0.5
0.0699029 0.0134257 0.0025 0.5
0.0699029 0.0134257 -0.0025 0.5
0.0699256 0.013875 -4.91572e-19 0.5
0.0699208 0.01443 0.0025 0.5
0.0699208 0.01443 -0.0025 0.5
0.0713978 0.0002775 0.0025 0.5
0.0713978 0.0002775 -0.0025 0.5
0.0699513 0.0143726 -0.00224144 0.5
0.0699513 0.0143726 0.00224144 0.5
0.0699513 0.0143726 0.0025 0.5
0.0699513 0.0143726 -0.0025 0.5
0.0699547 0.014484 0.00225696 0.5
0.0699547 0.014484 -0.00225696 0.5
0.0699547 0.014484 0.0025 0.5
0.0699547 0.014484 -0.0025 0.5
0.0699817 0.014985 8.98436e-19 0.5
0.0716756 0.0002775 9.36031e-20 0.5
0.0700087 0.0154861 0.0025 0.5
0.0700087 0.0154861 -0.0025 0.5
0.0700115 0.0155372 -0.00248759 0.5
0.0700115 0.0155372 0.00248759 0.5
0.0700115 0.0155372 0.0025 0.5
0.0700115 0.0155372 -0.0025 0.5
0.070012 0.0155432 -0.00248545 0.5
0.070012 0.0155432 0.00248545 0.5
0.070012 0.0155432 0.0025 0.5
0.070012 0.0155432 -0.0025 0.5
0.0700135 0.01554 0.0025 0.5
0.0700135 0.01554 -0.0025 0.5
0.0700432 0.016095 2.47987e-19 0.5
0.0719534 0.0002775 0.0025 0.5
0.0719534 0.0002775 -0.0025 0.5
0.0700721 0.0165868 -0.00221515 0.5
0.0700721 0.0165868 0.00221515 0.5
0.0700721 0.0165868 0.0025 0.5
0.0700721 0.0165868 -0.0025 0.5
0.0700841 0.0167252 -0.00216111 0.5
0.0700841 0.0167252 0.00216111 0.5
0.0700841 0.0167252 0.0025 0.5
0.0700841 0.0167252 -0.0025 0.5
0.0701106 0.01665 0.0025 0.5
0.0701106 0.01665 -0.0025 0.5
0.0701137 0.017205 1.04768e-19 0.5
0.0722313 0.000555 -0.0025 0.5
0.0722313 0.000555 0.0025 0.5
0.0701409 0.017628 -0.00190536 0.5
0.0701409 0.017628 0.00190536 0.5
0.0701409 0.017628 -0.0025 0.5
0.0701409 0.017628 0.0025 0.5
0.0701692 0.0179203 -0.00177797 0.5
0.0701692 0.0179203 0.00177797 0.5
0.0702065 0.01776 0.0025 0.5
0.0702065 0.01776 -0.0025 0.5
0.0701692 0.0179203 0.0025 0.5
0.0701692 0.0179203 -0.0025 0.5
0.0701962 0.018315 6.00407e-20 0.5
0.0725091 0.0002775 0.0025 0.5
0.0725091 0.0002775 -0.0025 0.5
0.0702204 0.0186586 -0.00154753 0.5
0.0702204 0.0186586 0.00154753 0.5
0.0702204 0.0186586 0.0025 0.5
0.0702204 0.0186586 -0.0025 0.5
0.0727869 0.0002775 1.145e-19 0.5
0.0703014 0.01887 0.0025 0.5
0.0703014 0.01887 -0.0025 0.5
0.0702721 0.019133 -0.0013151 0.5
0.0702721 0.019133 0.0013151 0.5
0.0702721 0.019133 0.0025 0.5
0.0702721 0.019133 -0.0025 0.5
0.0703072 0.0195919 -1.44768e-21 0.5
0.0703137 0.0196754 0.0025 0.5
0.0703137 0.0196754 -0.0025 0.5
0.0730647 0.0002775 0.0025 0.5
0.0730647 0.0002775 -0.0025 0.5
0.070395 0.01998 0.0025 0.5
0.070395 0.01998 -0.0025 0.5
0.0703989 0.0203697 0.0025 0.5
0.0703989 0.0203697 -0.0025 0.5
0.0704122 0.0205264 -5.77674e-20 0.5
0.0733425 0.000555 -0.0025 0.5
0.0733425 0.000555 0.0025 0.5
0.0704248 0.0206744 0.0025 0.5
0.0704248 0.0206744 -0.0025 0.5
0.0704869 0.02109 0.0025 0.5
0.0704869 0.02109 -0.0025 0.5
0.0736203 0.0002775 0.0025 0.5
0.0736203 0.0002775 -0.0025 0.5
0.070561 0.0216469 5.5254e-22 0.5
0.0705603 0.0216409 0.0025 0.5
0.0705603 0.0216409 -0.0025 0.5
0.070561 0.0216484 0.0025 0.5
0.070561 0.0216484 -0.0025 0.5
0.0738981 0.0002775 1.12679e-19 0.5
0.0705767 0.0222 0.0025 0.5
0.0705767 0.0222 -0.0025 0.5
0.0741759 0.0002775 0.0025 0.5
0.0741759 0.0002775 -0.0025 0.5
0.0706869 0.0226326 0.0025 0.5
0.0706869 0.0226326 -0.0025 0.5
0.0706945 0.0227602 -4.07197e-20 0.5
0.0707026 0.022893 0.0025 0.5
0.0707026 0.022893 -0.0025 0.5
0.0706638 0.02331 0.0025 0.5
0.0706638 0.02331 -0.0025 0.5
0.0744538 0.000555 -0.0025 0.5
0.0744538 0.000555 0.0025 0.5
0.0707882 0.0236414 0.0025 0.5
0.0707882 0.0236414 -0.0025 0.5
0.0708007 0.0238735 -8.07126e-19 0.5
0.0747316 0.0002775 0.0025 0.5
0.0747316 0.0002775 -0.0025 0.5
0.0708137 0.0241141 0.0025 0.5
0.0708137 0.0241141 -0.0025 0.5
0.0707473 0.02442 0.0025 0.5
0.0707473 0.02442 -0.0025 0.5
0.0750094 0.0002775 1.14375e-19 0.5
0.0708705 0.0246692 0.00137757 0.5
0.0708705 0.0246692 -0.00137757 0.5
0.0708705 0.0246692 0.0025 0.5
0.0708705 0.0246692 -0.0025 0.5
0.0708854 0.024975 1.07417e-18 0.5
0.070901 0.0253113 -0.00151481 0.5
0.070901 0.0253113 0.00151481 0.5
0.070901 0.0253113 0.0025 0.5
0.070901 0.0253113 -0.0025 0.5
0.0708252 0.02553 0.0025 0.5
0.0708252 0.02553 -0.0025 0.5
0.0752872 0.0002775 0.0025 0.5
0.0752872 0.0002775 -0.0025 0.5
0.0709367 0.0257131 0.00167523 0.5
0.0709367 0.0257131 -0.00167523 0.5
0.0709367 0.0257131 0.0025 0.5
0.0709367 0.0257131 -0.0025 0.5
0.0709525 0.026085 -5.4178e-19 0.5
0.075565 0.000555 -0.0025 0.5
0.075565 0.000555 0.0025 0.5
0.0709682 0.0264884 0.00181706 0.5
0.0709682 0.0264884 -0.00181706 0.5
0.0708958 0.02664 0.0025 0.5
0.0708958 0.02664 -0.0025 0.5
0.0709682 0.0264884 0.0025 0.5
0.0709682 0.0264884 -0.0025 0.5
0.0758428 0.0002775 0.0025 0.5
0.0758428 0.0002775 -0.0025 0.5
0.0709894 0.0267705 0.00191229 0.5
0.0709894 0.0267705 -0.00191229 0.5
0.0709894 0.0267705 0.0025 0.5
0.0709894 0.0267705 -0.0025 0.5
0.0710047 0.027195 7.89245e-20 0.5
0.0761206 0.0002775 1.14623e-19 0.5
0.0709588 0.02775 0.0025 0.5
0.0709588 0.02775 -0.0025 0.5
0.0710197 0.0276498 0.00204869 0.5
0.0710197 0.0276498 -0.00204869 0.5
0.0710197 0.0276498 0.0025 0.5
0.0710197 0.0276498 -0.0025 0.5
0.0710306 0.0278393 0.00209753 0.5
0.0710306 0.0278393 -0.00209753 0.5
0.0710306 0.0278393 0.0025 0.5
0.0710306 0.0278393 -0.0025 0.5
0.0763984 0.0002775 0.0025 0.5
0.0763984 0.0002775 -0.0025 0.5
0.0710451 0.028305 -6.74762e-19 0.5
0.0766763 0.000555 -0.0025 0.5
0.0766763 0.000555 0.0025 0.5
0.0710581 0.02886 0.0025 0.5
0.0710581 0.02886 -0.0025 0.5
0.0710837 0.0288237 0.00233666 0.5
0.0710837 0.0288237 -0.00233666 0.5
0.0710837 0.0288237 0.0025 0.5
0.0710837 0.0288237 -0.0025 0.5
0.0710865 0.0288935 0.00234923 0.5
0.0710865 0.0288935 -0.00234923 0.5
0.0710865 0.0288935 0.0025 0.5
0.0710865 0.0288935 -0.0025 0.5
0.0711283 0.029415 6.41712e-19 0.5
0.07112 0.0293717 0.0025 0.5
0.07112 0.0293717 -0.0025 0.5
0.0769541 0.0002775 0.0025 0.5
0.0769541 0.0002775 -0.0025 0.5
0.0772319 0.0002775 1.08196e-19 0.5
0.0711599 0.0299302 -0.00232063 0.5
0.0711599 0.0299302 0.00232063 0.5
0.0711599 0.0299302 0.0025 0.5
0.0711599 0.0299302 -0.0025 0.5
0.0711688 0.0300188 -0.00228029 0.5
0.0711688 0.0300188 0.00228029 0.5
0.0711688 0.0300188 0.0025 0.5
0.0711688 0.0300188 -0.0025 0.5
0.0711943 0.02997 0.0025 0.5
0.0711943 0.02997 -0.0025 0.5
0.0712023 0.030525 1.40368e-19 0.5
0.0775097 0.0002775 0.0025 0.5
0.0775097 0.0002775 -0.0025 0.5
0.0712231 0.030977 -0.00203592 0.5
0.0712231 0.030977 0.00203592 0.5
0.0712231 0.030977 0.0025 0.5
0.0712231 0.030977 -0.0025 0.5
0.0712412 0.031201 -0.00195478 0.5
0.0712412 0.031201 0.00195478 0.5
0.071293 0.03108 0.0025 0.5
0.071293 0.03108 -0.0025 0.5
0.0712412 0.031201 0.0025 0.5
0.0712412 0.031201 -0.0025 0.5
0.0777875 0.000555 -0.0025 0.5
0.0777875 0.000555 0.0025 0.5
0.0712625 0.031635 7.77715e-20 0.5
0.0780653 0.0002775 0.0025 0.5
0.0780653 0.0002775 -0.0025 0.5
0.0713109 0.0319993 -0.00164084 0.5
0.0713109 0.0319993 0.00164084 0.5
0.0713109 0.0319993 -0.0025 0.5
0.0713109 0.0319993 0.0025 0.5
0.0783431 0.0002775 8.26565e-20 0.5
0.0714405 0.03219 0.0025 0.5
0.0714405 0.03219 -0.0025 0.5
0.0714571 0.0325267 0.0025 0.5
0.0714571 0.0325267 -0.0025 0.5
0.071486 0.0327286 9.38069e-20 0.5
0.0786209 0.0002775 0.0025 0.5
0.0786209 0.0002775 -0.0025 0.5
0.0715064 0.0329141 0.0025 0.5
0.0715064 0.0329141 -0.0025 0.5
0.0788988 0.000555 -0.0025 0.5
0.0788988 0.000555 0.0025 0.5
0.0715878 0.0333 0.0025 0.5
0.0715878 0.0333 -0.0025 0.5
0.0716168 0.0338542 9.55505e-20 0.5
0.0791766 0.0002775 0.0025 0.5
0.0791766 0.0002775 -0.0025 0.5
0.0716144 0.0337938 0.0025 0.5
0.0716144 0.0337938 -0.0025 0.5
0.0716169 0.0339137 0.0025 0.5
0.0716169 0.0339137 -0.0025 0.5
0.0794544 0.0002775 9.54222e-20 0.5
0.0716053 0.03441 0.0025 0.5
0.0716053 0.03441 -0.0025 0.5
0.0715378 0.0348273 -0.0025 0.5
0.0715378 0.0348273 0.0025 0.5
0.0715377 0.0349636 9.1896e-20 0.5
0.0715421 0.0350984 -0.0025 0.5
0.0715421 0.0350984 0.0025 0.5
0.0797322 0.0002775 0.0025 0.5
0.0797322 0.0002775 -0.0025 0.5
0.0716211 0.03552 0.0025 0.5
0.0716211 0.03552 -0.0025 0.5
0.08001 0.000555 -0.0025 0.5
0.08001 0.000555 0.0025 0.5
0.0716605 0.0360871 1.63127e-19 0.5
0.0716581 0.0360575 0.0025 0.5
0.0716581 0.0360575 -0.0025 0.5
0.0716603 0.0360903 0.0025 0.5
0.0716603 0.0360903 -0.0025 0.5
0.0802878 0.0002775 0.0025 0.5
0.0802878 0.0002775 -0.0025 0.5
0.0716899 0.03663 0.0025 0.5
0.0716899 0.03663 -0.0025 0.5
0.0805656 0.0002775 1.15842e-19 0.5
0.0717598 0.0371009 0.0025 0.5
0.0717598 0.0371009 -0.0025 0.5
0.0717636 0.0371875 1.27143e-18 0.5
0.0808434 0.0002775 0.0025 0.5
0.0808434 0.0002775 -0.0025 0.5
0.0717674 0.0372766 0.0025 0.5
0.0717674 0.0372766 -0.0025 0.5
0.0717455 0.03774 0.0025 0.5
0.0717455 0.03774 -0.0025 0.5
0.0811213 0.000555 -0.0025 0.5
0.0811213 0.000555 0.0025 0.5
0.0718333 0.0381375 0.0025 0.5
0.0718333 0.0381375 -0.0025 0.5
0.071839 0.0382987 -2.14382e-18 0.5
0.0813991 0.0002775 0.0025 0.5
0.0813991 0.0002775 -0.0025 0.5
0.0718445 0.0384637 0.0025 0.5
0.0718445 0.0384637 -0.0025 0.5
0.0717919 0.03885 0.0025 0.5
0.0717919 0.03885 -0.0025 0.5
0.0816769 0.0002775 9.5745e-20 0.5
0.0718894 0.0391915 0.0025 0.5
0.0718894 0.0391915 -0.0025 0.5
0.0718955 0.039409 1.04675e-18 0.5
0.0819547 0.0002775 0.0025 0.5
0.0819547 0.0002775 -0.0025 0.5
0.0719013 0.0396304 0.0025 0.5
0.0719013 0.0396304 -0.0025 0.5
0.0718299 0.03996 -0.0025 0.5
0.0718299 0.03996 0.0025 0.5
0.0822325 0.000555 -0.0025 0.5
0.0822325 0.000555 0.0025 0.5
0.0719316 0.0402593 0.0025 0.5
0.0719316 0.0402593 -0.0025 0.5
0.0825103 0.0002775 0.0025 0.5
0.0825103 0.0002775 -0.0025 0.5
0.0719371 0.0405185 1.33229e-19 0.5
0.071942 0.0407811 0.0025 0.5
0.071942 0.0407811 -0.0025 0.5
0.0827881 0.0002775 8.32524e-20 0.5
0.0718592 0.04107 0.0025 0.5
0.0718592 0.04107 -0.0025 0.5
0.0719605 0.0413404 0.00128178 0.5
0.0719605 0.0413404 -0.00128178 0.5
0.0719605 0.0413404 0.0025 0.5
0.0719605 0.0413404 -0.0025 0.5
0.0830659 0.0002775 0.0025 0.5
0.0830659 0.0002775 -0.0025 0.5
0.0719651 0.041625 -5.37268e-19 0.5
0.0719679 0.041917 0.00131524 0.5
0.0719679 0.041917 -0.00131524 0.5
0.0719679 0.041917 0.0025 0.5
0.0719679 0.041917 -0.0025 0.5
0.0718786 0.04218 -0.0025 0.5
0.0718786 0.04218 0.0025 0.5
0.0833437 0.000555 -0.0025 0.5
0.0833437 0.000555 0.0025 0.5
0.0719778 0.0424332 0.0013596 0.5
0.0719778 0.0424332 -0.0013596 0.5
0.0719778 0.0424332 0.0025 0.5
0.0719778 0.0424332 -0.0025 0.5
0.0836216 0.0002775 0.0025 0.5
0.0836216 0.0002775 -0.0025 0.5
0.0719807 0.042735 8.11577e-19 0.5
0.0719824 0.0430414 0.00138012 0.5
0.0719824 0.0430414 -0.00138012 0.5
0.0838994 0.0002775 3.228e-22 0.5
0.0719824 0.0430414 0.0025 0.5
0.0719824 0.0430414 -0.0025 0.5
0.0718901 0.04329 0.0025 0.5
0.0718901 0.04329 -0.0025 0.5
0.0719878 0.0435332 0.00140463 0.5
0.0719878 0.0435332 -0.00140463 0.5
0.0719878 0.0435332 0.0025 0.5
0.0719878 0.0435332 -0.0025 0.5
0.0841772 0.0002775 0.0025 0.5
0.0841772 0.0002775 -0.0025 0.5
0.0719895 0.043845 -1.78983e-19 0.5
0.0719897 0.0441587 0.00141323 0.5
0.0719897 0.0441587 -0.00141323 0.5
0.0719897 0.0441587 0.0025 0.5
0.0719897 0.0441587 -0.0025 0.5
0.084455 0.000555 -0.0025 0.5
0.084455 0.000555 0.0025 0.5
0.0718948 0.0444 0.0025 0.5
0.0718948 0.0444 -0.0025 0.5
0.0719903 0.0446407 0.00141594 0.5
0.0719903 0.0446407 -0.00141594 0.5
0.0719903 0.0446407 0.0025 0.5
0.0719903 0.0446407 -0.0025 0.5
0.0847328 0.0002775 0.0025 0.5
0.0847328 0.0002775 -0.0025 0.5
0.0719905 0.044955 5.88047e-19 0.5
0.0850106 0.0002775 0 0.5
0.0719885 0.0452675 -0.0014078 0.5
0.0719885 0.0452675 0.0014078 0.5
0.0719885 0.0452675 0.0025 0.5
0.0719885 0.0452675 -0.0025 0.5
0.0718904 0.04551 0.0025 0.5
0.0718904 0.04551 -0.0025 0.5
0.0719822 0.0457588 0.00137923 0.5
0.0719822 0.0457588 -0.00137923 0.5
0.0852884 0.0002775 0.0025 0.5
0.0852884 0.0002775 -0.0025 0.5
0.0719822 0.0457588 0.0025 0.5
0.0719822 0.0457588 -0.0025 0.5
0.0719802 0.046065 -6.18714e-19 0.5
0.0855663 0.000555 -0.0025 0.5
0.0855663 0.000555 0.0025 0.5
0.0719766 0.0463656 -0.00135403 0.5
0.0719766 0.0463656 0.00135403 0.5
0.0719766 0.0463656 0.0025 0.5
0.0719766 0.0463656 -0.0025 0.5
0.0718762 0.04662 -0.0025 0.5
0.0718762 0.04662 0.0025 0.5
0.0858441 0.0002775 0.0025 0.5
0.0858441 0.0002775 -0.0025 0.5
0.0719639 0.0468871 0.00129698 0.5
0.0719639 0.0468871 -0.00129698 0.5
0.0719639 0.0468871 0.0025 0.5
0.0719639 0.0468871 -0.0025 0.5
0.0719603 0.047175 9.25818e-19 0.5
0.0861219 0.0002775 0 0.5
0.0719555 0.0474545 -0.0012591 0.5
0.0719555 0.0474545 0.0012591 0.5
0.0719555 0.0474545 -0.0025 0.5
0.0719555 0.0474545 0.0025 0.5
0.071854 0.04773 0.0025 0.5
0.071854 0.04773 -0.0025 0.5
0.0863997 0.0002775 0.0025 0.5
0.0863997 0.0002775 -0.0025 0.5
0.0719352 0.0480257 0.0025 0.5
0.0719352 0.0480257 -0.0025 0.5
0.0719301 0.0482815 2.80216e-19 0.5
0.0866775 0.000555 -0.0025 0.5
0.0866775 0.000555 0.0025 0.5
0.0719247 0.0485338 0.0025 0.5
0.0719247 0.0485338 -0.0025 0.5
0.0718242 0.04884 0.0025 0.5
0.0718242 0.04884 -0.0025 0.5
0.0869553 0.0002775 0.0025 0.5
0.0869553 0.0002775 -0.0025 0.5
0.0718941 0.0491768 0.0025 0.5
0.0718941 0.0491768 -0.0025 0.5
0.0718885 0.0493913 2.03006e-19 0.5
0.0872331 0.0002775 0 0.5
0.0718828 0.049602 0.0025 0.5
0.0718828 0.049602 -0.0025 0.5
0.0717878 0.04995 -0.0025 0.5
0.0717878 0.04995 0.0025 0.5
0.0875109 0.0002775 0.0025 0.5
0.0875109 0.0002775 -0.0025 0.5
0.0718393 0.0503416 -0.0025 0.5
0.0718393 0.0503416 0.0025 0.5
0.0718343 0.0505017 2.40044e-18 0.5
0.0877888 0.000555 -0.0025 0.5
0.0877888 0.000555 0.0025 0.5
0.0718292 0.0506584 -0.0025 0.5
0.0718292 0.0506584 0.0025 0.5
0.0880666 0.0002775 -0.00125 0.5
0.0880666 0.0002775 0.00125 0.5
0.0717465 0.05106 0.0025 0.5
0.0717465 0.05106 -0.0025 0.5
0.0880666 0.0002775 0.0025 0.5
0.0880666 0.0002775 -0.0025 0.5
0.0883444 0.0002775 0 0.5
0.07177 0.0515207 0.0025 0.5
0.07177 0.0515207 -0.0025 0.5
0.0883444 0.00111 0.0025 0.5
0.0883444 0.00111 -0.0025 0.5
0.0717667 0.0516128 -2.08551e-18 0.5
0.0883444 0.00222 0.0025 0.5
0.0883444 0.00222 -0.0025 0.5
0.0883444 0.00333 0.0025 0.5
0.0883444 0.00333 -0.0025 0.5
0.0717634 0.0517027 0.0025 0.5
0.0717634 0.0517027 -0.0025 0.5
0.0883444 0.00444 0.0025 0.5
0.0883444 0.00444 -0.0025 0.5
0.0883444 0.00555 0.0025 0.5
0.0883444 0.00555 -0.0025 0.5
0.0886222 0.000555 0 0.5
0.0883444 0.00666 0.0025 0.5
0.0883444 0.00666 -0.0025 0.5
0.0886222 0.0002775 -0.00125 0.5
0.0886222 0.0002775 0.00125 0.5
0.0886222 0.0008325 0.00125 0.5
0.0886222 0.0008325 -0.00125 0.5
0.0886222 0.001665 0 0.5
0.0886222 0.0002775 0.0025 0.5
0.0886222 0.0002775 -0.0025 0.5
0.0886222 0.0008325 0.0025 0.5
0.0886222 0.0008325 -0.0025 0.5
0.0886222 0.002775 0 0.5
0.0886222 0.0013875 0.0025 0.5
0.0886222 0.0013875 -0.0025 0.5
0.0886222 0.0019425 0.0025 0.5
0.0886222 0.0019425 -0.0025 0.5
0.0886222 0.0024975 0.0025 0.5
0.0886222 0.0024975 -0.0025 0.5
0.0886222 0.003885 0 0.5
0.071701 0.05217 -0.0025 0.5
0.071701 0.05217 0.0025 0.5
0.0886222 0.0030525 0.0025 0.5
0.0886222 0.0030525 -0.0025 0.5
0.0883444 0.00777 0.0025 0.5
0.0883444 0.00777 -0.0025 0.5
0.0886222 0.0036075 0.0025 0.5
0.0886222 0.0036075 -0.0025 0.5
0.0886222 0.0041625 0.0025 0.5
0.0886222 0.0041625 -0.0025 0.5
0.0886222 0.004995 -1.81603e-19 0.5
0.0886222 0.0047175 0.0025 0.5
0.0886222 0.0047175 -0.0025 0.5
0.0886222 0.0052725 0.0025 0.5
0.0886222 0.0052725 -0.0025 0.5
0.0883444 0.00888 0.0025 0.5
0.0883444 0.00888 -0.0025 0.5
0.0886222 0.006105 -4.31797e-21 0.5
0.0886222 0.0058275 0.0025 0.5
0.0886222 0.0058275 -0.0025 0.5
0.0886222 0.0063825 0.0025 0.5
0.0886222 0.0063825 -0.0025 0.5
0.0886222 0.007215 3.76366e-21 0.5
0.0886222 0.0069375 -0.0025 0.5
0.0886222 0.0069375 0.0025 0.5
0.0883444 0.00999 0.0025 0.5
0.0883444 0.00999 -0.0025 0.5
0.0886222 0.0074925 -0.0025 0.5
0.0886222 0.0074925 0.0025 0.5
0.0716834 0.0527326 2.9185e-19 0.5
0.0886222 0.008325 1.10296e-21 0.5
0.0716844 0.0527163 -0.0025 0.5
0.0716844 0.0527163 0.0025 0.5
0.0886222 0.0080475 -0.0025 0.5
0.0886222 0.0080475 0.0025 0.5
0.0716837 0.052733 -0.0025 0.5
0.0716837 0.052733 0.0025 0.5
0.0886222 0.0086025 -0.0025 0.5
0.0886222 0.0086025 0.0025 0.5
0.0883444 0.0111 0.0025 0.5
0.0883444 0.0111 -0.0025 0.5
0.0886222 0.009435 1.92878e-21 0.5
0.0886222 0.0091575 0.0025 0.5
0.0886222 0.0091575 -0.0025 0.5
0.0886222 0.0097125 0.0025 0.5
0.0886222 0.0097125 -0.0025 0.5
0.0883444 0.01221 0.0025 0.5
0.0883444 0.01221 -0.0025 0.5
0.0886222 0.010545 3.88923e-21 0.5
0.0886222 0.0102675 0.0025 0.5
0.0886222 0.0102675 -0.0025 0.5
0.0886222 0.0108225 0.0025 0.5
0.0886222 0.0108225 -0.0025 0.5
0.071652 0.05328 0.0025 0.5
0.071652 0.05328 -0.0025 0.5
0.0883444 0.01332 0.0025 0.5
0.0883444 0.01332 -0.0025 0.5
0.0886222 0.0113775 0.0025 0.5
0.0886222 0.0113775 -0.0025 0.5
0.0886222 0.011655 2.78619e-21 0.5
0.0886222 0.0119325 0.0025 0.5
0.0886222 0.0119325 -0.0025 0.5
0.0886222 0.0124875 -0.0025 0.5
0.0886222 0.0124875 0.0025 0.5
0.0886222 0.012765 1.81655e-19 0.5
0.0883444 0.01443 0.0025 0.5
0.0883444 0.01443 -0.0025 0.5
0.0715985 0.0537579 0.0025 0.5
0.0715985 0.0537579 -0.0025 0.5
0.0715948 0.0538375 2.40418e-18 0.5
0.0886222 0.0130425 -0.0025 0.5
0.0886222 0.0130425 0.0025 0.5
0.0715911 0.0539194 0.0025 0.5
0.0715911 0.0539194 -0.0025 0.5
0.0886222 0.0135975 0.0025 0.5
0.0886222 0.0135975 -0.0025 0.5
0.0886222 0.013875 0 0.5
0.0883444 0.01554 0.0025 0.5
0.0883444 0.01554 -0.0025 0.5
0.0886222 0.0141525 0.0025 0.5
0.0886222 0.0141525 -0.0025 0.5
0.0886222 0.0147075 -0.0025 0.5
0.0886222 0.0147075 0.0025 0.5
0.0886222 0.014985 7.52748e-21 0.5
0.0883444 0.01665 0.0025 0.5
0.0883444 0.01665 -0.0025 0.5
0.071601 0.05439 0.0025 0.5
0.071601 0.05439 -0.0025 0.5
0.0886222 0.0152625 -0.0025 0.5
0.0886222 0.0152625 0.0025 0.5
0.0886222 0.0158175 0.0025 0.5
0.0886222 0.0158175 -0.0025 0.5
0.0886222 0.016095 0 0.5
0.0715232 0.0547928 0.0025 0.5
0.0715232 0.0547928 -0.0025 0.5
0.0883444 0.01776 0.0025 0.5
0.0883444 0.01776 -0.0025 0.5
0.0886222 0.0163725 0.0025 0.5
0.0886222 0.0163725 -0.0025 0.5
0.0715165 0.0549496 -1.89794e-18 0.5
0.0886222 0.0169275 0.0025 0.5
0.0886222 0.0169275 -0.0025 0.5
0.0886222 0.017205 0 0.5
0.0715096 0.0551109 0.0025 0.5
0.0715096 0.0551109 -0.0025 0.5
0.0886222 0.0174825 0.0025 0.5
0.0886222 0.0174825 -0.0025 0.5
0.0883444 0.01887 0.0025 0.5
0.0883444 0.01887 -0.0025 0.5
0.0886222 0.0180375 0.0025 0.5
0.0886222 0.0180375 -0.0025 0.5
0.0886222 0.018315 -4.24739e-19 0.5
0.0715494 0.0555 0.0025 0.5
0.0715494 0.0555 -0.0025 0.5
0.0886222 0.0185925 0.0025 0.5
0.0886222 0.0185925 -0.0025 0.5
0.0883444 0.01998 0.0025 0.5
0.0883444 0.01998 -0.0025 0.5
0.0886222 0.0191475 0.0025 0.5
0.0886222 0.0191475 -0.0025 0.5
0.0714582 0.0558378 0.0025 0.5
0.0714582 0.0558378 -0.0025 0.5
0.0886222 0.019425 2.54579e-19 0.5
0.0714493 0.056061 7.61115e-19 0.5
0.0886222 0.0197025 0.0025 0.5
0.0886222 0.0197025 -0.0025 0.5
0.0883444 0.02109 0.0025 0.5
0.0883444 0.02109 -0.0025 0.5
0.0886222 0.0202575 0.0025 0.5
0.0886222 0.0202575 -0.0025 0.5
0.0886222 0.020535 -4.2863e-21 0.5
0.0714402 0.0562902 0.0025 0.5
0.0714402 0.0562902 -0.0025 0.5
0.0886222 0.0208125 0.0025 0.5
0.0886222 0.0208125 -0.0025 0.5
0.0883444 0.0222 0.0025 0.5
0.0883444 0.0222 -0.0025 0.5
0.0886222 0.0213675 0.0025 0.5
0.0886222 0.0213675 -0.0025 0.5
0.0886222 0.021645 -2.44648e-21 0.5
0.0714984 0.05661 -0.0025 0.5
0.0714984 0.05661 0.0025 0.5
0.0886222 0.0219225 0.0025 0.5
0.0886222 0.0219225 -0.0025 0.5
0.0714022 0.0568919 -0.0025 0.5
0.0714022 0.0568919 0.0025 0.5
0.0713988 0.0569829 -5.96096e-19 0.5
0.0883444 0.02331 0.0025 0.5
0.0883444 0.02331 -0.0025 0.5
0.0886222 0.0224775 0.0025 0.5
0.0886222 0.0224775 -0.0025 0.5
0.0886222 0.022755 -2.49561e-19 0.5
0.0886222 0.0230325 0.0025 0.5
0.0886222 0.0230325 -0.0025 0.5
0.0713819 0.0574584 -0.00132175 0.5
0.0713819 0.0574584 0.00132175 0.5
0.0713819 0.0574584 0.0025 0.5
0.0713819 0.0574584 -0.0025 0.5
0.0883444 0.02442 0.0025 0.5
0.0883444 0.02442 -0.0025 0.5
0.0886222 0.0235875 0.0025 0.5
0.0886222 0.0235875 -0.0025 0.5
0.0886222 0.023865 4.33092e-19 0.5
0.0714496 0.05772 -0.0025 0.5
0.0714496 0.05772 0.0025 0.5
0.0886222 0.0241425 0.0025 0.5
0.0886222 0.0241425 -0.0025 0.5
0.0713549 0.0579547 -0.00144295 0.5
0.0713549 0.0579547 0.00144295 0.5
0.0713549 0.0579547 0.0025 0.5
0.0713549 0.0579547 -0.0025 0.5
0.0883444 0.02553 0.0025 0.5
0.0883444 0.02553 -0.0025 0.5
0.0886222 0.0246975 -0.0025 0.5
0.0886222 0.0246975 0.0025 0.5
0.0886222 0.024975 1.19177e-21 0.5
0.0713443 0.058275 2.23003e-18 0.5
0.0886222 0.0252525 0.0025 0.5
0.0886222 0.0252525 -0.0025 0.5
0.0883444 0.02664 0.0025 0.5
0.0883444 0.02664 -0.0025 0.5
0.0886222 0.0258075 0.0025 0.5
0.0886222 0.0258075 -0.0025 0.5
0.0713343 0.058616 -0.00153598 0.5
0.0713343 0.058616 0.00153598 0.5
0.0713343 0.058616 -0.0025 0.5
0.0713343 0.058616 0.0025 0.5
0.0886222 0.026085 9.22105e-21 0.5
0.0886222 0.0263625 0.0025 0.5
0.0886222 0.0263625 -0.0025 0.5
0.0714049 0.05883 0.0025 0.5
0.0714049 0.05883 -0.0025 0.5
0.0713157 0.0590255 -0.00161928 0.5
0.0713157 0.0590255 0.00161928 0.5
0.0713157 0.0590255 0.0025 0.5
0.0713157 0.0590255 -0.0025 0.5
0.0883444 0.02775 0.0025 0.5
0.0883444 0.02775 -0.0025 0.5
0.0886222 0.0269175 0.0025 0.5
0.0886222 0.0269175 -0.0025 0.5
0.0886222 0.027195 1.2044e-20 0.5
0.0713055 0.059385 6.15443e-19 0.5
0.0886222 0.0274725 0.0025 0.5
0.0886222 0.0274725 -0.0025 0.5
0.0883444 0.02886 0.0025 0.5
0.0883444 0.02886 -0.0025 0.5
0.0886222 0.0280275 0.0025 0.5
0.0886222 0.0280275 -0.0025 0.5
0.0886222 0.028305 -8.22717e-21 0.5
0.0712964 0.0597638 -0.00170624 0.5
0.0712964 0.0597638 0.00170624 0.5
0.0712964 0.0597638 0.0025 0.5
0.0712964 0.0597638 -0.0025 0.5
0.0886222 0.0285825 0.0025 0.5
0.0886222 0.0285825 -0.0025 0.5
0.0713658 0.05994 0.0025 0.5
0.0713658 0.05994 -0.0025 0.5
0.071284 0.0601038 -0.00176218 0.5
0.071284 0.0601038 0.00176218 0.5
0.071284 0.0601038 -0.0025 0.5
0.071284 0.0601038 0.0025 0.5
0.0886222 0.0291375 0.0025 0.5
0.0886222 0.0291375 -0.0025 0.5
0.0883444 0.02997 0.0025 0.5
0.0883444 0.02997 -0.0025 0.5
0.0886222 0.029415 -6.85063e-19 0.5
0.0712748 0.060495 -1.84506e-18 0.5
0.0886222 0.0296925 0.0025 0.5
0.0886222 0.0296925 -0.0025 0.5
0.0886222 0.0302475 0.0025 0.5
0.0886222 0.0302475 -0.0025 0.5
0.0883444 0.03108 0.0025 0.5
0.0883444 0.03108 -0.0025 0.5
0.0886222 0.030525 6.22217e-19 0.5
0.0712671 0.060903 -0.00183798 0.5
0.0712671 0.060903 0.00183798 0.5
0.0712671 0.060903 0.0025 0.5
0.0712671 0.060903 -0.0025 0.5
0.0886222 0.0308025 0.0025 0.5
0.0886222 0.0308025 -0.0025 0.5
0.0713329 0.06105 0.0025 0.5
0.0713329 0.06105 -0.0025 0.5
0.0712589 0.0611888 0.00187485 0.5
0.0712589 0.0611888 -0.00187485 0.5
0.0712589 0.0611888 0.0025 0.5
0.0712589 0.0611888 -0.0025 0.5
0.0886222 0.0313575 0.0025 0.5
0.0886222 0.0313575 -0.0025 0.5
0.0883444 0.03219 0.0025 0.5
0.0883444 0.03219 -0.0025 0.5
0.0886222 0.031635 -3.88923e-21 0.5
0.0712513 0.061605 5.8713e-19 0.5
0.0886222 0.0319125 0.0025 0.5
0.0886222 0.0319125 -0.0025 0.5
0.0886222 0.0324675 0.0025 0.5
0.0886222 0.0324675 -0.0025 0.5
0.0883444 0.0333 0.0025 0.5
0.0883444 0.0333 -0.0025 0.5
0.0886222 0.032745 0 0.5
0.071245 0.0620351 -0.00193739 0.5
0.071245 0.0620351 0.00193739 0.5
0.071245 0.0620351 0.0025 0.5
0.071245 0.0620351 -0.0025 0.5
0.0886222 0.0330225 0.0025 0.5
0.0886222 0.0330225 -0.0025 0.5
0.0713065 0.06216 -0.0025 0.5
0.0713065 0.06216 0.0025 0.5
0.0712397 0.0622795 0.00196153 0.5
0.0712397 0.0622795 -0.00196153 0.5
0.0712397 0.0622795 0.0025 0.5
0.0712397 0.0622795 -0.0025 0.5
0.0886222 0.0335775 0.0025 0.5
0.0886222 0.0335775 -0.0025 0.5
0.0883444 0.03441 0.0025 0.5
0.0883444 0.03441 -0.0025 0.5
0.0886222 0.033855 0 0.5
0.0712335 0.062715 8.65723e-20 0.5
0.0886222 0.0341325 0.0025 0.5
0.0886222 0.0341325 -0.0025 0.5
0.0886222 0.0346875 0.0025 0.5
0.0886222 0.0346875 -0.0025 0.5
0.0712278 0.0631623 -0.00201502 0.5
0.0712278 0.0631623 0.00201502 0.5
0.0712278 0.0631623 0.0025 0.5
0.0712278 0.0631623 -0.0025 0.5
0.0883444 0.03552 0.0025 0.5
0.0883444 0.03552 -0.0025 0.5
0.0886222 0.034965 -3.39789e-22 0.5
0.0712844 0.06327 0.0025 0.5
0.0712844 0.06327 -0.0025 0.5
0.0712238 0.0633737 -0.00203277 0.5
0.0712238 0.0633737 0.00203277 0.5
0.0712238 0.0633737 0.0025 0.5
0.0712238 0.0633737 -0.0025 0.5
0.0886222 0.0352425 0.0025 0.5
0.0886222 0.0352425 -0.0025 0.5
0.0886222 0.0357975 0.0025 0.5
0.0886222 0.0357975 -0.0025 0.5
0.0712182 0.063825 7.11389e-20 0.5
0.0883444 0.03663 0.0025 0.5
0.0883444 0.03663 -0.0025 0.5
0.0886222 0.036075 1.76716e-21 0.5
0.0886222 0.0363525 0.0025 0.5
0.0886222 0.0363525 -0.0025 0.5
0.0712097 0.0642904 -0.00209652 0.5
0.0712097 0.0642904 0.00209652 0.5
0.0712097 0.0642904 0.0025 0.5
0.0712097 0.0642904 -0.0025 0.5
0.0886222 0.0369075 0.0025 0.5
0.0886222 0.0369075 -0.0025 0.5
0.0712585 0.06438 0.0025 0.5
0.0712585 0.06438 -0.0025 0.5
0.0712052 0.0644651 -0.00211683 0.5
0.0712052 0.0644651 0.00211683 0.5
0.0712052 0.0644651 0.0025 0.5
0.0712052 0.0644651 -0.0025 0.5
0.0883444 0.03774 0.0025 0.5
0.0883444 0.03774 -0.0025 0.5
0.0886222 0.037185 -6.78638e-19 0.5
0.0886222 0.0374625 0.0025 0.5
0.0886222 0.0374625 -0.0025 0.5
0.0711967 0.064935 3.92182e-21 0.5
0.0886222 0.0380175 -0.0025 0.5
0.0886222 0.0380175 0.0025 0.5
0.0883444 0.03885 0.0025 0.5
0.0883444 0.03885 -0.0025 0.5
0.0886222 0.038295 1.29532e-18 0.5
0.0886222 0.0385725 -0.0025 0.5
0.0886222 0.0385725 0.0025 0.5
0.0712354 0.0653747 -0.00198074 0.5
0.0712354 0.0653747 0.00198074 0.5
0.0712354 0.0653747 0.0025 0.5
0.0712354 0.0653747 -0.0025 0.5
0.0713211 0.06549 -0.0025 0.5
0.0713211 0.06549 0.0025 0.5
0.0886222 0.0391275 -0.0025 0.5
0.0886222 0.0391275 0.0025 0.5
0.0712884 0.0656582 -0.00174228 0.5
0.0712884 0.0656582 0.00174228 0.5
0.0712884 0.0656582 0.0025 0.5
0.0712884 0.0656582 -0.0025 0.5
0.0886222 0.039405 -6.22645e-19 0.5
0.0883444 0.03996 0.0025 0.5
0.0883444 0.03996 -0.0025 0.5
0.0886222 0.0396825 -0.0025 0.5
0.0886222 0.0396825 0.0025 0.5
0.0886222 0.0402375 0.0025 0.5
0.0886222 0.0402375 -0.0025 0.5
0.0886222 0.040515 -2.0701e-21 0.5
0.0883444 0.04107 0.0025 0.5
0.0883444 0.04107 -0.0025 0.5
0.0715216 0.0661989 0.0025 0.5
0.0715216 0.0661989 -0.0025 0.5
0.071632 0.0661886 1.46431e-19 0.5
0.0886222 0.0407925 0.0025 0.5
0.0886222 0.0407925 -0.0025 0.5
0.0718297 0.0661989 0.0025 0.5
0.0718297 0.0661989 -0.0025 0.5
0.0886222 0.0413475 0.0025 0.5
0.0886222 0.0413475 -0.0025 0.5
0.0722313 0.0659675 -0.0025 0.5
0.0722313 0.0659675 0.0025 0.5
0.0886222 0.041625 0 0.5
0.0883444 0.04218 0.0025 0.5
0.0883444 0.04218 -0.0025 0.5
0.0886222 0.0419025 0.0025 0.5
0.0886222 0.0419025 -0.0025 0.5
0.0725091 0.0663225 0.0025 0.5