# f_l  POINT_DATA 1253
#  x  y  z  f_l
0.0686182 0.00222 0.0025 0.5
0.0686182 0.00222 -0.0025 0.5
0.0687017 0.001665 4.90362e-20 0.5
0.0686873 0.00111 0.0025 0.5
0.0686873 0.00111 -0.0025 0.5
0.068711 0.00203372 -0.00166091 0.5
0.068711 0.00203372 0.00166091 0.5
0.0686486 0.00333 0.0025 0.5
0.0686486 0.00333 -0.0025 0.5
0.0687175 0.00239976 0.00169027 0.5
0.0687175 0.00239976 -0.00169027 0.5
0.0687272 0.002775 1.19212e-19 0.5
0.068711 0.00203372 0.0025 0.5
0.068711 0.00203372 -0.0025 0.5
0.0687522 0.00125518 0.00184603 0.5
0.0687522 0.00125518 -0.00184603 0.5
0.0687644 0.000977047 -0.00190111 0.5
0.0687644 0.000977047 0.00190111 0.5
0.0687175 0.00239976 0.0025 0.5
0.0687175 0.00239976 -0.0025 0.5
0.0687522 0.00125518 0.0025 0.5
0.0687522 0.00125518 -0.0025 0.5
0.0687644 0.000977047 0.0025 0.5
0.0687644 0.000977047 -0.0025 0.5
0.0687332 0.00316586 -0.00176062 0.5
0.0687332 0.00316586 0.00176062 0.5
0.0688267 0.000555 1.49748e-19 0.5
0.0687365 0.00349079 0.0017757 0.5
0.0687365 0.00349079 -0.0017757 0.5
0.0687332 0.00316586 0.0025 0.5
0.0687332 0.00316586 -0.0025 0.5
0.0687426 0.003885 2.42681e-19 0.5
0.0686714 0.00444 0.0025 0.5
0.0686714 0.00444 -0.0025 0.5
0.0687365 0.00349079 0.0025 0.5
0.0687365 0.00349079 -0.0025 0.5
0.0687486 0.00429131 -0.00183025 0.5
0.0687486 0.00429131 0.00183025 0.5
0.0687486 0.00429131 0.0025 0.5
0.0687486 0.00429131 -0.0025 0.5
0.0687514 0.0045859 0.0018428 0.5
0.0687514 0.0045859 -0.0018428 0.5
0.0687576 0.004995 3.06795e-20 0.5
0.0688975 0.000951447 -0.0025 0.5
0.0688975 0.000951447 0.0025 0.5
0.0687514 0.0045859 0.0025 0.5
0.0687514 0.0045859 -0.0025 0.5
0.0686961 0.00555 0.0025 0.5
0.0686961 0.00555 -0.0025 0.5
0.0687649 0.00541758 -0.00190352 0.5
0.0687649 0.00541758 0.00190352 0.5
0.0687649 0.00541758 0.0025 0.5
0.0687649 0.00541758 -0.0025 0.5
0.0687678 0.00567957 0.00191635 0.5
0.0687678 0.00567957 -0.00191635 0.5
0.0687753 0.006105 -8.80249e-21 0.5
0.0687678 0.00567957 0.0025 0.5
0.0687678 0.00567957 -0.0025 0.5
0.0687261 0.00666 0.0025 0.5
0.0687261 0.00666 -0.0025 0.5
0.0687847 0.0065473 -0.00199232 0.5
0.0687847 0.0065473 0.00199232 0.5
0.0687847 0.0065473 0.0025 0.5
0.0687847 0.0065473 -0.0025 0.5
0.0687876 0.00676975 0.00200563 0.5
0.0687876 0.00676975 -0.00200563 0.5
0.0687876 0.00676975 0.0025 0.5
0.0687876 0.00676975 -0.0025 0.5
0.0687972 0.007215 1.41074e-21 0.5
0.0687636 0.00777 0.0025 0.5
0.0687636 0.00777 -0.0025 0.5
0.0688093 0.00768191 -0.00210318 0.5
0.0688093 0.00768191 0.00210318 0.5
0.0692275 0.000329672 0.0025 0.5
0.0692275 0.000329672 -0.0025 0.5
0.0688093 0.00768191 0.0025 0.5
0.0688093 0.00768191 -0.0025 0.5
0.0688121 0.00785526 0.00211593 0.5
0.0688121 0.00785526 -0.00211593 0.5
0.0688121 0.00785526 0.0025 0.5
0.0688121 0.00785526 -0.0025 0.5
0.0688245 0.008325 1.66059e-19 0.5
0.0688104 0.00888 0.0025 0.5
0.0688104 0.00888 -0.0025 0.5
0.0688401 0.00882271 -0.00224193 0.5
0.0688401 0.00882271 0.00224193 0.5
0.0688401 0.00882271 0.0025 0.5
0.0688401 0.00882271 -0.0025 0.5
0.0694531 0.000329672 3.92292e-20 0.5
0.0688424 0.00893505 0.00225205 0.5
0.0688424 0.00893505 -0.00225205 0.5
0.0688424 0.00893505 0.0025 0.5
0.0688424 0.00893505 -0.0025 0.5
0.0688584 0.009435 -4.28699e-20 0.5
0.0688689 0.00999 0.0025 0.5
0.0688689 0.00999 -0.0025 0.5
0.0688787 0.00997118 0.00241524 0.5
0.0688787 0.00997118 -0.00241524 0.5
0.0688787 0.00997118 0.0025 0.5
0.0688787 0.00997118 -0.0025 0.5
0.0688795 0.0100079 0.00241923 0.5
0.0688795 0.0100079 -0.00241923 0.5
0.0688795 0.0100079 0.0025 0.5
0.0688795 0.0100079 -0.0025 0.5
0.0689004 0.010545 4.09154e-20 0.5
0.0696787 0.000329672 0.0025 0.5
0.0696787 0.000329672 -0.0025 0.5
0.0688975 0.0104365 0.0025 0.5
0.0688975 0.0104365 -0.0025 0.5
0.068924 0.0110735 -0.00238067 0.5
0.068924 0.0110735 0.00238067 0.5
0.068924 0.0110735 -0.0025 0.5
0.068924 0.0110735 0.0025 0.5
0.0689276 0.01113 -0.00236479 0.5
0.0689276 0.01113 0.00236479 0.5
0.0689276 0.01113 0.0025 0.5
0.0689276 0.01113 -0.0025 0.5
0.0689399 0.0111 0.0025 0.5
0.0689399 0.0111 -0.0025 0.5
0.0689518 0.011655 -2.30334e-19 0.5
0.0700088 0.000579183 -0.0025 0.5
0.0700088 0.000579183 0.0025 0.5
0.0689766 0.012131 -0.00214397 0.5
0.0689766 0.012131 0.00214397 0.5
0.0689766 0.012131 0.0025 0.5
0.0689766 0.012131 -0.0025 0.5
0.0689893 0.0123017 -0.00208712 0.5
0.0689893 0.0123017 0.00208712 0.5
0.0689893 0.0123017 0.0025 0.5
0.0689893 0.0123017 -0.0025 0.5
0.069018 0.01221 0.0025 0.5
0.069018 0.01221 -0.0025 0.5
0.0690144 0.012765 4.33426e-19 0.5
0.0690389 0.0131788 -0.00186376 0.5
0.0690389 0.0131788 0.00186376 0.5
0.0690389 0.0131788 0.0025 0.5
0.0690389 0.0131788 -0.0025 0.5
0.0702866 0.0002775 0.0025 0.5
0.0702866 0.0002775 -0.0025 0.5
0.0690659 0.0134882 -0.00174221 0.5
0.0690659 0.0134882 0.00174221 0.5
0.0690659 0.0134882 0.0025 0.5
0.0690659 0.0134882 -0.0025 0.5
0.0691008 0.01332 0.0025 0.5
0.0691008 0.01332 -0.0025 0.5
0.0690901 0.013875 -4.17038e-19 0.5
0.0705644 0.0002775 2.66209e-19 0.5
0.069112 0.0142158 0.00153492 0.5
0.069112 0.0142158 -0.00153492 0.5
0.069112 0.0142158 0.0025 0.5
0.069112 0.0142158 -0.0025 0.5
0.0691583 0.0146905 -0.00132674 0.5
0.0691583 0.0146905 0.00132674 0.5
0.069185 0.01443 0.0025 0.5
0.069185 0.01443 -0.0025 0.5
0.0691583 0.0146905 -0.0025 0.5
0.0691583 0.0146905 0.0025 0.5
0.0691906 0.0151558 5.98461e-19 0.5
0.0708422 0.0002775 0.0025 0.5
0.0708422 0.0002775 -0.0025 0.5
0.0691966 0.0152412 0.0025 0.5
0.0691966 0.0152412 -0.0025 0.5
0.0692687 0.01554 0.0025 0.5
0.0692687 0.01554 -0.0025 0.5
0.0692696 0.0159117 0.0025 0.5
0.0692696 0.0159117 -0.0025 0.5
0.0692831 0.0160862 6.04188e-20 0.5
0.07112 0.000555 -0.0025 0.5
0.07112 0.000555 0.0025 0.5
0.0692961 0.0162518 0.0025 0.5
0.0692961 0.0162518 -0.0025 0.5
0.0693524 0.01665 0.0025 0.5
0.0693524 0.01665 -0.0025 0.5
0.0713978 0.0002775 0.0025 0.5
0.0713978 0.0002775 -0.0025 0.5
0.0694166 0.0172272 1.93251e-19 0.5
0.0694099 0.0171618 0.0025 0.5
0.0694099 0.0171618 -0.0025 0.5
0.0694169 0.0172412 0.0025 0.5
0.0694169 0.0172412 -0.0025 0.5
0.0716756 0.0002775 9.36031e-20 0.5
0.0694364 0.01776 0.0025 0.5
0.0694364 0.01776 -0.0025 0.5
0.0695462 0.0183186 1.20872e-19 0.5
0.069541 0.0182272 -0.0025 0.5
0.069541 0.0182272 0.0025 0.5
0.0695517 0.0184135 -0.0025 0.5
0.0695517 0.0184135 0.0025 0.5
0.0719534 0.0002775 0.0025 0.5
0.0719534 0.0002775 -0.0025 0.5
0.0695196 0.01887 0.0025 0.5
0.0695196 0.01887 -0.0025 0.5
0.0722313 0.000555 -0.0025 0.5
0.0722313 0.000555 0.0025 0.5
0.0696427 0.0192356 0.0025 0.5
0.0696427 0.0192356 -0.0025 0.5
0.0696531 0.0194321 -4.20098e-21 0.5
0.0696639 0.0196356 0.0025 0.5
0.0696639 0.0196356 -0.0025 0.5
0.0696012 0.01998 0.0025 0.5
0.0696012 0.01998 -0.0025 0.5
0.0725091 0.0002775 0.0025 0.5
0.0725091 0.0002775 -0.0025 0.5
0.0697321 0.0203522 -7.8697e-19 0.5
0.0697277 0.0202607 0.0025 0.5
0.0697277 0.0202607 -0.0025 0.5
0.0727869 0.0002775 1.145e-19 0.5
0.0697555 0.020837 -0.0013605 0.5
0.0697555 0.020837 0.0013605 0.5
0.0697555 0.020837 0.0025 0.5
0.0697555 0.020837 -0.0025 0.5
0.0696796 0.02109 0.0025 0.5
0.0696796 0.02109 -0.0025 0.5
0.0697979 0.0213006 0.00155149 0.5
0.0697979 0.0213006 -0.00155149 0.5
0.0697979 0.0213006 0.0025 0.5
0.0697979 0.0213006 -0.0025 0.5
0.069813 0.021645 6.53511e-19 0.5
0.0730647 0.0002775 0.0025 0.5
0.0730647 0.0002775 -0.0025 0.5
0.0698286 0.02202 -0.00168926 0.5
0.0698286 0.02202 0.00168926 0.5
0.0697526 0.0222 0.0025 0.5
0.0697526 0.0222 -0.0025 0.5
0.0698286 0.02202 0.0025 0.5
0.0698286 0.02202 -0.0025 0.5
0.0698551 0.0223535 0.00180866 0.5
0.0698551 0.0223535 -0.00180866 0.5
0.0698551 0.0223535 0.0025 0.5
0.0698551 0.0223535 -0.0025 0.5
0.0733425 0.000555 -0.0025 0.5
0.0733425 0.000555 0.0025 0.5
0.0698705 0.022755 -3.06559e-21 0.5
0.0698251 0.02331 0.0025 0.5
0.0698251 0.02331 -0.0025 0.5
0.0736203 0.0002775 0.0025 0.5
0.0736203 0.0002775 -0.0025 0.5
0.0698899 0.0231912 -0.00196506 0.5
0.0698899 0.0231912 0.00196506 0.5
0.0698899 0.0231912 0.0025 0.5
0.0698899 0.0231912 -0.0025 0.5
0.0699043 0.0234144 0.00202984 0.5
0.0699043 0.0234144 -0.00202984 0.5
0.0699043 0.0234144 0.0025 0.5
0.0699043 0.0234144 -0.0025 0.5
0.0699235 0.023865 -1.04323e-18 0.5
0.0738981 0.0002775 1.12679e-19 0.5
0.069939 0.02442 0.0025 0.5
0.069939 0.02442 -0.0025 0.5
0.0699664 0.0243777 0.00230928 0.5
0.0699664 0.0243777 -0.00230928 0.5
0.0699664 0.0243777 0.0025 0.5
0.0699664 0.0243777 -0.0025 0.5
0.0699701 0.0244586 0.0023263 0.5
0.0699701 0.0244586 -0.0023263 0.5
0.0699701 0.0244586 0.0025 0.5
0.0699701 0.0244586 -0.0025 0.5
0.0741759 0.0002775 0.0025 0.5
0.0741759 0.0002775 -0.0025 0.5
0.070017 0.024975 1.22062e-18 0.5
0.0700088 0.0249217 -0.0025 0.5
0.0700088 0.0249217 0.0025 0.5
0.0744538 0.000555 -0.0025 0.5
0.0744538 0.000555 0.0025 0.5
0.0700561 0.0254827 -0.00228673 0.5
0.0700561 0.0254827 0.00228673 0.5
0.0700561 0.0254827 0.0025 0.5
0.0700561 0.0254827 -0.0025 0.5
0.0700691 0.0255903 -0.00222847 0.5
0.0700691 0.0255903 0.00222847 0.5
0.0700691 0.0255903 0.0025 0.5
0.0700691 0.0255903 -0.0025 0.5
0.0700956 0.02553 0.0025 0.5
0.0700956 0.02553 -0.0025 0.5
0.0747316 0.0002775 0.0025 0.5
0.0747316 0.0002775 -0.0025 0.5
0.0701104 0.026085 -1.07018e-19 0.5
0.0701427 0.0265062 -0.00189709 0.5
0.0701427 0.0265062 0.00189709 0.5
0.0750094 0.0002775 1.14375e-19 0.5
0.0701427 0.0265062 -0.0025 0.5
0.0701427 0.0265062 0.0025 0.5
0.0701811 0.0268122 -0.00172438 0.5
0.0701811 0.0268122 0.00172438 0.5
0.0702288 0.02664 0.0025 0.5
0.0702288 0.02664 -0.0025 0.5
0.0701811 0.0268122 0.0025 0.5
0.0701811 0.0268122 -0.0025 0.5
0.0702133 0.027195 9.93842e-20 0.5
0.0752872 0.0002775 0.0025 0.5
0.0752872 0.0002775 -0.0025 0.5
0.070239 0.02752 -0.00146392 0.5
0.070239 0.02752 0.00146392 0.5
0.070239 0.02752 -0.0025 0.5
0.070239 0.02752 0.0025 0.5
0.075565 0.000555 -0.0025 0.5
0.075565 0.000555 0.0025 0.5
0.070347 0.02775 0.0025 0.5
0.070347 0.02775 -0.0025 0.5
0.0703103 0.0280512 0.0025 0.5
0.0703103 0.0280512 -0.0025 0.5
0.0703312 0.0282915 -6.35003e-19 0.5
0.0758428 0.0002775 0.0025 0.5
0.0758428 0.0002775 -0.0025 0.5
0.0703507 0.0285184 0.0025 0.5
0.0703507 0.0285184 -0.0025 0.5
0.0761206 0.0002775 1.14623e-19 0.5
0.0704562 0.02886 0.0025 0.5
0.0704562 0.02886 -0.0025 0.5
0.0704697 0.0293204 -0.0025 0.5
0.0704697 0.0293204 0.0025 0.5
0.0704778 0.0294099 1.15748e-18 0.5
0.0763984 0.0002775 0.0025 0.5
0.0763984 0.0002775 -0.0025 0.5
0.0704851 0.0294942 0.0025 0.5
0.0704851 0.0294942 -0.0025 0.5
0.0705538 0.02997 0.0025 0.5
0.0705538 0.02997 -0.0025 0.5
0.0766763 0.000555 -0.0025 0.5
0.0766763 0.000555 0.0025 0.5
0.0706324 0.0304838 2.18235e-19 0.5
0.070633 0.0304564 0.0025 0.5
0.070633 0.0304564 -0.0025 0.5
0.0769541 0.0002775 0.0025 0.5
0.0769541 0.0002775 -0.0025 0.5
0.0706429 0.0306034 -0.0025 0.5
0.0706429 0.0306034 0.0025 0.5
0.0706378 0.03108 0.0025 0.5
0.0706378 0.03108 -0.0025 0.5
0.0772319 0.0002775 1.08196e-19 0.5
0.0707446 0.031455 0.0025 0.5
0.0707446 0.031455 -0.0025 0.5
0.0707585 0.0316455 2.06192e-21 0.5
0.0775097 0.0002775 0.0025 0.5
0.0775097 0.0002775 -0.0025 0.5
0.070776 0.0318464 0.0025 0.5
0.070776 0.0318464 -0.0025 0.5
0.0707454 0.03219 0.0025 0.5
0.0707454 0.03219 -0.0025 0.5
0.0777875 0.000555 -0.0025 0.5
0.0777875 0.000555 0.0025 0.5
0.0708823 0.0324275 0.00143034 0.5
0.0708823 0.0324275 -0.00143034 0.5
0.0708823 0.0324275 0.0025 0.5
0.0708823 0.0324275 -0.0025 0.5
0.0709089 0.032745 8.82585e-20 0.5
0.0780653 0.0002775 0.0025 0.5
0.0780653 0.0002775 -0.0025 0.5
0.0709252 0.0331054 -0.00162342 0.5
0.0709252 0.0331054 0.00162342 0.5
0.0709252 0.0331054 0.0025 0.5
0.0709252 0.0331054 -0.0025 0.5
0.0708502 0.0333 0.0025 0.5
0.0708502 0.0333 -0.0025 0.5
0.0783431 0.0002775 8.26565e-20 0.5
0.0709562 0.0334636 0.00176301 0.5
0.0709562 0.0334636 -0.00176301 0.5
0.0709562 0.0334636 0.0025 0.5
0.0709562 0.0334636 -0.0025 0.5
0.0709724 0.033855 1.31946e-19 0.5
0.0786209 0.0002775 0.0025 0.5
0.0786209 0.0002775 -0.0025 0.5
0.0709765 0.0342667 -0.00185454 0.5
0.0709765 0.0342667 0.00185454 0.5
0.0708955 0.03441 0.0025 0.5
0.0708955 0.03441 -0.0025 0.5
0.0709765 0.0342667 -0.0025 0.5
0.0709765 0.0342667 0.0025 0.5
0.0788988 0.000555 -0.0025 0.5
0.0788988 0.000555 0.0025 0.5
0.0709821 0.0345478 0.00187945 0.5
0.0709821 0.0345478 -0.00187945 0.5
0.0709821 0.0345478 0.0025 0.5
0.0709821 0.0345478 -0.0025 0.5
0.0709862 0.034965 1.84896e-19 0.5
0.0791766 0.0002775 0.0025 0.5
0.0791766 0.0002775 -0.0025 0.5
0.0710015 0.0354016 -0.00196665 0.5
0.0710015 0.0354016 0.00196665 0.5
0.0709356 0.03552 0.0025 0.5
0.0709356 0.03552 -0.0025 0.5
0.0710015 0.0354016 0.0025 0.5
0.0710015 0.0354016 -0.0025 0.5
0.0794544 0.0002775 9.54222e-20 0.5
0.0710165 0.0356234 0.00203426 0.5
0.0710165 0.0356234 -0.00203426 0.5
0.0710165 0.0356234 0.0025 0.5
0.0710165 0.0356234 -0.0025 0.5
0.0710313 0.036075 1.93748e-19 0.5
0.0797322 0.0002775 0.0025 0.5
0.0797322 0.0002775 -0.0025 0.5
0.0709935 0.03663 -0.0025 0.5
0.0709935 0.03663 0.0025 0.5
0.0710446 0.0365547 -0.0021607 0.5
0.0710446 0.0365547 0.0021607 0.5
0.0710446 0.0365547 0.0025 0.5
0.0710446 0.0365547 -0.0025 0.5
0.0710523 0.0366976 0.00219542 0.5
0.0710523 0.0366976 -0.00219542 0.5
0.0710523 0.0366976 0.0025 0.5
0.0710523 0.0366976 -0.0025 0.5
0.08001 0.000555 -0.0025 0.5
0.08001 0.000555 0.0025 0.5
0.0710651 0.037185 6.41289e-19 0.5
0.0802878 0.0002775 0.0025 0.5
0.0802878 0.0002775 -0.0025 0.5
0.0710419 0.03774 0.0025 0.5
0.0710419 0.03774 -0.0025 0.5
0.0710761 0.0376962 -0.00230263 0.5
0.0710761 0.0376962 0.00230263 0.5
0.0710761 0.0376962 -0.0025 0.5
0.0710761 0.0376962 0.0025 0.5
0.0710797 0.0377803 -0.0023186 0.5
0.0710797 0.0377803 0.0023186 0.5
0.0710797 0.0377803 -0.0025 0.5
0.0710797 0.0377803 0.0025 0.5
0.0805656 0.0002775 1.15842e-19 0.5
0.0710903 0.038295 -1.23766e-18 0.5
0.0808434 0.0002775 0.0025 0.5
0.0808434 0.0002775 -0.0025 0.5
0.0710832 0.03885 0.0025 0.5
0.0710832 0.03885 -0.0025 0.5
0.0711003 0.0388304 -0.00241155 0.5
0.0711003 0.0388304 0.00241155 0.5
0.0711003 0.0388304 0.0025 0.5
0.0711003 0.0388304 -0.0025 0.5
0.0711014 0.0388686 0.00241619 0.5
0.0711014 0.0388686 -0.00241619 0.5
0.0711014 0.0388686 0.0025 0.5
0.0711014 0.0388686 -0.0025 0.5
0.0811213 0.000555 -0.0025 0.5
0.0811213 0.000555 0.0025 0.5
0.0711112 0.039405 8.54309e-19 0.5
0.0813991 0.0002775 0.0025 0.5
0.0813991 0.0002775 -0.0025 0.5
0.07112 0.0395982 -0.0025 0.5
0.07112 0.0395982 0.0025 0.5
0.0711289 0.0399511 -0.00246003 0.5
0.0711289 0.0399511 0.00246003 0.5
0.0711289 0.0399511 0.0025 0.5
0.0711289 0.0399511 -0.0025 0.5
0.0711299 0.0399699 -0.00245556 0.5
0.0711299 0.0399699 0.00245556 0.5
0.0711299 0.0399699 0.0025 0.5
0.0711299 0.0399699 -0.0025 0.5
0.071138 0.03996 0.0025 0.5
0.071138 0.03996 -0.0025 0.5
0.0816769 0.0002775 9.5745e-20 0.5
0.0711482 0.040515 1.76395e-19 0.5
0.0819547 0.0002775 0.0025 0.5
0.0819547 0.0002775 -0.0025 0.5
0.0711587 0.0410313 -0.00232586 0.5
0.0711587 0.0410313 0.00232586 0.5
0.0711587 0.0410313 0.0025 0.5
0.0711587 0.0410313 -0.0025 0.5
0.0711615 0.0411115 -0.00231328 0.5
0.0711615 0.0411115 0.00231328 0.5
0.0711615 0.0411115 0.0025 0.5
0.0711615 0.0411115 -0.0025 0.5
0.071194 0.04107 0.0025 0.5
0.071194 0.04107 -0.0025 0.5
0.0822325 0.000555 -0.0025 0.5
0.0822325 0.000555 0.0025 0.5
0.0711722 0.041625 1.29593e-19 0.5
0.0825103 0.0002775 0.0025 0.5
0.0825103 0.0002775 -0.0025 0.5
0.0711781 0.0421219 -0.00223836 0.5
0.0711781 0.0421219 0.00223836 0.5
0.0711781 0.0421219 0.0025 0.5
0.0711781 0.0421219 -0.0025 0.5
0.0827881 0.0002775 8.32524e-20 0.5
0.0711806 0.0422406 -0.00222715 0.5
0.0711806 0.0422406 0.00222715 0.5
0.0711806 0.0422406 -0.0025 0.5
0.0711806 0.0422406 0.0025 0.5
0.0712267 0.04218 0.0025 0.5
0.0712267 0.04218 -0.0025 0.5
0.0711866 0.042735 2.12832e-19 0.5
0.0830659 0.0002775 0.0025 0.5
0.0830659 0.0002775 -0.0025 0.5
0.0711898 0.0432203 -0.00218588 0.5
0.0711898 0.0432203 0.00218588 0.5
0.0711898 0.0432203 0.0025 0.5
0.0711898 0.0432203 -0.0025 0.5
0.0833437 0.000555 -0.0025 0.5
0.0833437 0.000555 0.0025 0.5
0.0711915 0.0433614 -0.00217826 0.5
0.0711915 0.0433614 0.00217826 0.5
0.0711915 0.0433614 0.0025 0.5
0.0711915 0.0433614 -0.0025 0.5
0.0712449 0.04329 0.0025 0.5
0.0712449 0.04329 -0.0025 0.5
0.0711947 0.043845 2.08326e-19 0.5
0.0836216 0.0002775 0.0025 0.5
0.0836216 0.0002775 -0.0025 0.5
0.0711952 0.0443249 -0.00216156 0.5
0.0711952 0.0443249 0.00216156 0.5
0.0838994 0.0002775 3.228e-22 0.5
0.0711952 0.0443249 -0.0025 0.5
0.0711952 0.0443249 0.0025 0.5
0.0711955 0.0444755 -0.00216013 0.5
0.0711955 0.0444755 0.00216013 0.5
0.0711955 0.0444755 -0.0025 0.5
0.0711955 0.0444755 0.0025 0.5
0.0712523 0.0444 0.0025 0.5
0.0712523 0.0444 -0.0025 0.5
0.071196 0.044955 1.50027e-19 0.5
0.0841772 0.0002775 0.0025 0.5
0.0841772 0.0002775 -0.0025 0.5
0.0711929 0.0454372 -0.00217212 0.5
0.0711929 0.0454372 0.00217212 0.5
0.084455 0.000555 -0.0025 0.5
0.084455 0.000555 0.0025 0.5
0.0711929 0.0454372 0.0025 0.5
0.0711929 0.0454372 -0.0025 0.5
0.0711912 0.0455811 -0.00217967 0.5
0.0711912 0.0455811 0.00217967 0.5
0.0711912 0.0455811 0.0025 0.5
0.0711912 0.0455811 -0.0025 0.5
0.071247 0.04551 0.0025 0.5
0.071247 0.04551 -0.0025 0.5
0.0847328 0.0002775 0.0025 0.5
0.0847328 0.0002775 -0.0025 0.5
0.0711881 0.046065 4.33567e-20 0.5
0.0850106 0.0002775 0 0.5
0.0711814 0.0465586 -0.00222353 0.5
0.0711814 0.0465586 0.00222353 0.5
0.0711814 0.0465586 0.0025 0.5
0.0711814 0.0465586 -0.0025 0.5
0.0711787 0.0466786 -0.00223609 0.5
0.0711787 0.0466786 0.00223609 0.5
0.0711787 0.0466786 0.0025 0.5
0.0711787 0.0466786 -0.0025 0.5
0.0712277 0.04662 0.0025 0.5
0.0712277 0.04662 -0.0025 0.5
0.0852884 0.0002775 0.0025 0.5
0.0852884 0.0002775 -0.0025 0.5
0.0711721 0.047175 1.94034e-19 0.5
0.0855663 0.000555 -0.0025 0.5
0.0855663 0.000555 0.0025 0.5
0.0711616 0.0476884 0.00231271 0.5
0.0711616 0.0476884 -0.00231271 0.5
0.0711616 0.0476884 0.0025 0.5
0.0711616 0.0476884 -0.0025 0.5
0.0711589 0.0477688 -0.00232509 0.5
0.0711589 0.0477688 0.00232509 0.5
0.0711589 0.0477688 0.0025 0.5
0.0711589 0.0477688 -0.0025 0.5
0.0711942 0.04773 0.0025 0.5
0.0711942 0.04773 -0.0025 0.5
0.0858441 0.0002775 0.0025 0.5
0.0858441 0.0002775 -0.0025 0.5
0.0711486 0.048285 2.75955e-19 0.5
0.0861219 0.0002775 0 0.5
0.0711321 0.0488279 -0.00244566 0.5
0.0711321 0.0488279 0.00244566 0.5
0.0711321 0.0488279 0.0025 0.5
0.0711321 0.0488279 -0.0025 0.5
0.071131 0.0488509 -0.00245069 0.5
0.071131 0.0488509 0.00245069 0.5
0.071131 0.0488509 0.0025 0.5
0.071131 0.0488509 -0.0025 0.5
0.0711421 0.04884 0.0025 0.5
0.0711421 0.04884 -0.0025 0.5
0.0863997 0.0002775 0.0025 0.5
0.0863997 0.0002775 -0.0025 0.5
0.07112 0.0493173 -0.0025 0.5
0.07112 0.0493173 0.0025 0.5
0.071115 0.049395 2.51051e-19 0.5
0.0866775 0.000555 -0.0025 0.5
0.0866775 0.000555 0.0025 0.5
0.071091 0.04995 0.0025 0.5
0.071091 0.04995 -0.0025 0.5
0.0711053 0.0499353 -0.00243391 0.5
0.0711053 0.0499353 0.00243391 0.5
0.0711053 0.0499353 0.0025 0.5
0.0711053 0.0499353 -0.0025 0.5
0.0711047 0.0499653 -0.00243114 0.5
0.0711047 0.0499653 0.00243114 0.5
0.0711047 0.0499653 -0.0025 0.5
0.0711047 0.0499653 0.0025 0.5
0.0869553 0.0002775 0.0025 0.5
0.0869553 0.0002775 -0.0025 0.5
0.071095 0.050505 1.56004e-18 0.5
0.0872331 0.0002775 0 0.5
0.0710554 0.05106 0.0025 0.5
0.0710554 0.05106 -0.0025 0.5
0.0710868 0.0510268 0.00235043 0.5
0.0710868 0.0510268 -0.00235043 0.5
0.0710868 0.0510268 0.0025 0.5
0.0710868 0.0510268 -0.0025 0.5
0.0875109 0.0002775 0.0025 0.5
0.0875109 0.0002775 -0.0025 0.5
0.0710846 0.0510954 -0.00234058 0.5
0.0710846 0.0510954 0.00234058 0.5
0.0710846 0.0510954 -0.0025 0.5
0.0710846 0.0510954 0.0025 0.5
0.0877888 0.000555 -0.0025 0.5
0.0877888 0.000555 0.0025 0.5
0.0710761 0.051615 4.4839e-19 0.5
0.0880666 0.0002775 -0.00125 0.5
0.0880666 0.0002775 0.00125 0.5
0.0880666 0.0002775 0.0025 0.5
0.0880666 0.0002775 -0.0025 0.5
0.0710178 0.05217 -0.0025 0.5
0.0710178 0.05217 0.0025 0.5
0.071066 0.052116 0.00225696 0.5
0.071066 0.052116 -0.00225696 0.5
0.071066 0.052116 0.0025 0.5
0.071066 0.052116 -0.0025 0.5
0.0710613 0.0522286 0.00223599 0.5
0.0710613 0.0522286 -0.00223599 0.5
0.0710613 0.0522286 -0.0025 0.5
0.0710613 0.0522286 0.0025 0.5
0.0883444 0.0002775 0 0.5
0.0883444 0.00111 0.0025 0.5
0.0883444 0.00111 -0.0025 0.5
0.0883444 0.00222 0.0025 0.5
0.0883444 0.00222 -0.0025 0.5
0.0883444 0.00333 0.0025 0.5
0.0883444 0.00333 -0.0025 0.5
0.0710508 0.052725 -1.27315e-18 0.5
0.0883444 0.00444 0.0025 0.5
0.0883444 0.00444 -0.0025 0.5
0.0883444 0.00555 0.0025 0.5
0.0883444 0.00555 -0.0025 0.5
0.0886222 0.000555 0 0.5
0.0883444 0.00666 0.0025 0.5
0.0883444 0.00666 -0.0025 0.5
0.0886222 0.0002775 -0.00125 0.5
0.0886222 0.0002775 0.00125 0.5
0.0886222 0.0008325 0.00125 0.5
0.0886222 0.0008325 -0.00125 0.5
0.0886222 0.001665 0 0.5
0.0886222 0.0002775 0.0025 0.5
0.0886222 0.0002775 -0.0025 0.5
0.0886222 0.0008325 0.0025 0.5
0.0886222 0.0008325 -0.0025 0.5
0.0886222 0.002775 0 0.5
0.0886222 0.0013875 0.0025 0.5
0.0886222 0.0013875 -0.0025 0.5
0.0886222 0.0019425 0.0025 0.5
0.0886222 0.0019425 -0.0025 0.5
0.0886222 0.0024975 0.0025 0.5
0.0886222 0.0024975 -0.0025 0.5
0.0886222 0.003885 0 0.5
0.0886222 0.0030525 0.0025 0.5
0.0886222 0.0030525 -0.0025 0.5
0.0883444 0.00777 0.0025 0.5
0.0883444 0.00777 -0.0025 0.5
0.0886222 0.0036075 0.0025 0.5
0.0886222 0.0036075 -0.0025 0.5
0.0886222 0.0041625 0.0025 0.5
0.0886222 0.0041625 -0.0025 0.5
0.0886222 0.004995 -1.81603e-19 0.5
0.0710398 0.0531999 -0.0021391 0.5
0.0710398 0.0531999 0.0021391 0.5
0.070974 0.05328 -0.0025 0.5
0.070974 0.05328 0.0025 0.5
0.0886222 0.0047175 0.0025 0.5
0.0886222 0.0047175 -0.0025 0.5
0.0710398 0.0531999 0.0025 0.5
0.0710398 0.0531999 -0.0025 0.5
0.0886222 0.0052725 0.0025 0.5
0.0886222 0.0052725 -0.0025 0.5
0.0883444 0.00888 0.0025 0.5
0.0883444 0.00888 -0.0025 0.5
0.0886222 0.006105 -4.31797e-21 0.5
0.0886222 0.0058275 0.0025 0.5
0.0886222 0.0058275 -0.0025 0.5
0.0710318 0.0533681 0.00210305 0.5
0.0710318 0.0533681 -0.00210305 0.5
0.0710318 0.0533681 -0.0025 0.5
0.0710318 0.0533681 0.0025 0.5
0.0886222 0.0063825 0.0025 0.5
0.0886222 0.0063825 -0.0025 0.5
0.0886222 0.007215 3.76366e-21 0.5
0.0886222 0.0069375 -0.0025 0.5
0.0886222 0.0069375 0.0025 0.5
0.0883444 0.00999 0.0025 0.5
0.0883444 0.00999 -0.0025 0.5
0.0886222 0.0074925 -0.0025 0.5
0.0886222 0.0074925 0.0025 0.5
0.0886222 0.008325 1.10296e-21 0.5
0.0886222 0.0080475 -0.0025 0.5
0.0886222 0.0080475 0.0025 0.5
0.0886222 0.0086025 -0.0025 0.5
0.0886222 0.0086025 0.0025 0.5
0.0883444 0.0111 0.0025 0.5
0.0883444 0.0111 -0.0025 0.5
0.0710204 0.053835 1.91125e-18 0.5
0.0886222 0.009435 1.92878e-21 0.5
0.0886222 0.0091575 0.0025 0.5
0.0886222 0.0091575 -0.0025 0.5
0.0886222 0.0097125 0.0025 0.5
0.0886222 0.0097125 -0.0025 0.5
0.0883444 0.01221 0.0025 0.5
0.0883444 0.01221 -0.0025 0.5
0.0886222 0.010545 3.88923e-21 0.5
0.0886222 0.0102675 0.0025 0.5
0.0886222 0.0102675 -0.0025 0.5
0.0886222 0.0108225 0.0025 0.5
0.0886222 0.0108225 -0.0025 0.5
0.0883444 0.01332 0.0025 0.5
0.0883444 0.01332 -0.0025 0.5
0.0886222 0.0113775 0.0025 0.5
0.0886222 0.0113775 -0.0025 0.5
0.0886222 0.011655 2.78619e-21 0.5
0.0710092 0.0542793 -0.0020015 0.5
0.0710092 0.0542793 0.0020015 0.5
0.0710092 0.0542793 0.0025 0.5
0.0710092 0.0542793 -0.0025 0.5
0.0709274 0.05439 -0.0025 0.5
0.0709274 0.05439 0.0025 0.5
0.0886222 0.0119325 0.0025 0.5
0.0886222 0.0119325 -0.0025 0.5
0.0709972 0.0545127 0.00194729 0.5
0.0709972 0.0545127 -0.00194729 0.5
0.0886222 0.0124875 -0.0025 0.5
0.0886222 0.0124875 0.0025 0.5
0.0886222 0.012765 1.81655e-19 0.5
0.0709972 0.0545127 0.0025 0.5
0.0709972 0.0545127 -0.0025 0.5
0.0883444 0.01443 0.0025 0.5
0.0883444 0.01443 -0.0025 0.5
0.0886222 0.0130425 -0.0025 0.5
0.0886222 0.0130425 0.0025 0.5
0.0886222 0.0135975 0.0025 0.5
0.0886222 0.0135975 -0.0025 0.5
0.0886222 0.013875 0 0.5
0.0883444 0.01554 0.0025 0.5
0.0883444 0.01554 -0.0025 0.5
0.0709857 0.054945 -1.67958e-18 0.5
0.0886222 0.0141525 0.0025 0.5
0.0886222 0.0141525 -0.0025 0.5
0.0886222 0.0147075 -0.0025 0.5
0.0886222 0.0147075 0.0025 0.5
0.0886222 0.014985 7.52748e-21 0.5
0.0883444 0.01665 0.0025 0.5
0.0883444 0.01665 -0.0025 0.5
0.0886222 0.0152625 -0.0025 0.5
0.0886222 0.0152625 0.0025 0.5
0.0709747 0.0553549 -0.00184645 0.5
0.0709747 0.0553549 0.00184645 0.5
0.0709747 0.0553549 -0.0025 0.5
0.0709747 0.0553549 0.0025 0.5
0.0886222 0.0158175 0.0025 0.5
0.0886222 0.0158175 -0.0025 0.5
0.0708798 0.0555 0.0025 0.5
0.0708798 0.0555 -0.0025 0.5
0.0886222 0.016095 0 0.5
0.0883444 0.01776 0.0025 0.5
0.0883444 0.01776 -0.0025 0.5
0.0886222 0.0163725 0.0025 0.5
0.0886222 0.0163725 -0.0025 0.5
0.0709579 0.0556619 0.00177056 0.5
0.0709579 0.0556619 -0.00177056 0.5
0.0709579 0.0556619 0.0025 0.5
0.0709579 0.0556619 -0.0025 0.5
0.0886222 0.0169275 0.0025 0.5
0.0886222 0.0169275 -0.0025 0.5
0.0886222 0.017205 0 0.5
0.0886222 0.0174825 0.0025 0.5
0.0886222 0.0174825 -0.0025 0.5
0.0883444 0.01887 0.0025 0.5
0.0883444 0.01887 -0.0025 0.5
0.0709468 0.056055 -1.36232e-18 0.5
0.0886222 0.0180375 0.0025 0.5
0.0886222 0.0180375 -0.0025 0.5
0.0886222 0.018315 -4.24739e-19 0.5
0.0886222 0.0185925 0.0025 0.5
0.0886222 0.0185925 -0.0025 0.5
0.0883444 0.01998 0.0025 0.5
0.0883444 0.01998 -0.0025 0.5
0.0709366 0.0564268 0.00167481 0.5
0.0709366 0.0564268 -0.00167481 0.5
0.0709366 0.0564268 0.0025 0.5
0.0709366 0.0564268 -0.0025 0.5
0.0886222 0.0191475 0.0025 0.5
0.0886222 0.0191475 -0.0025 0.5
0.0708327 0.05661 0.0025 0.5
0.0708327 0.05661 -0.0025 0.5
0.0886222 0.019425 2.54579e-19 0.5
0.0886222 0.0197025 0.0025 0.5
0.0886222 0.0197025 -0.0025 0.5
0.0883444 0.02109 0.0025 0.5
0.0883444 0.02109 -0.0025 0.5
0.0709148 0.056815 -0.00157649 0.5
0.0709148 0.056815 0.00157649 0.5
0.0709148 0.056815 -0.0025 0.5
0.0709148 0.056815 0.0025 0.5
0.0886222 0.0202575 0.0025 0.5
0.0886222 0.0202575 -0.0025 0.5
0.0886222 0.020535 -4.2863e-21 0.5
0.0886222 0.0208125 0.0025 0.5
0.0886222 0.0208125 -0.0025 0.5
0.0709046 0.057165 -3.1122e-19 0.5
0.0883444 0.0222 0.0025 0.5
0.0883444 0.0222 -0.0025 0.5
0.0886222 0.0213675 0.0025 0.5
0.0886222 0.0213675 -0.0025 0.5
0.0886222 0.021645 -2.44648e-21 0.5
0.0708957 0.057496 -0.00149081 0.5
0.0708957 0.057496 0.00149081 0.5
0.0708957 0.057496 0.0025 0.5
0.0708957 0.057496 -0.0025 0.5
0.0886222 0.0219225 0.0025 0.5
0.0886222 0.0219225 -0.0025 0.5
0.0707877 0.05772 -0.0025 0.5
0.0707877 0.05772 0.0025 0.5
0.0883444 0.02331 0.0025 0.5
0.0883444 0.02331 -0.0025 0.5
0.0886222 0.0224775 0.0025 0.5
0.0886222 0.0224775 -0.0025 0.5
0.0886222 0.022755 -2.49561e-19 0.5
0.0708695 0.0579702 0.00137277 0.5
0.0708695 0.0579702 -0.00137277 0.5
0.0708695 0.0579702 0.0025 0.5
0.0708695 0.0579702 -0.0025 0.5
0.0886222 0.0230325 0.0025 0.5
0.0886222 0.0230325 -0.0025 0.5
0.0883444 0.02442 0.0025 0.5
0.0883444 0.02442 -0.0025 0.5
0.0886222 0.0235875 0.0025 0.5
0.0886222 0.0235875 -0.0025 0.5
0.0708608 0.058275 3.27635e-18 0.5
0.0886222 0.023865 4.33092e-19 0.5
0.0886222 0.0241425 0.0025 0.5
0.0886222 0.0241425 -0.0025 0.5
0.0708536 0.0585639 -0.00130126 0.5
0.0708536 0.0585639 0.00130126 0.5
0.0708536 0.0585639 0.0025 0.5
0.0708536 0.0585639 -0.0025 0.5
0.0883444 0.02553 0.0025 0.5
0.0883444 0.02553 -0.0025 0.5
0.0886222 0.0246975 -0.0025 0.5
0.0886222 0.0246975 0.0025 0.5
0.0707463 0.05883 0.0025 0.5
0.0707463 0.05883 -0.0025 0.5
0.0886222 0.024975 1.19177e-21 0.5
0.0886222 0.0252525 0.0025 0.5
0.0886222 0.0252525 -0.0025 0.5
0.0708248 0.0591249 -0.0025 0.5
0.0708248 0.0591249 0.0025 0.5
0.0883444 0.02664 0.0025 0.5
0.0883444 0.02664 -0.0025 0.5
0.0886222 0.0258075 0.0025 0.5
0.0886222 0.0258075 -0.0025 0.5
0.0886222 0.026085 9.22105e-21 0.5
0.0708184 0.0593809 -5.33559e-19 0.5
0.0886222 0.0263625 0.0025 0.5
0.0886222 0.0263625 -0.0025 0.5
0.0708125 0.0596328 -0.0025 0.5
0.0708125 0.0596328 0.0025 0.5
0.0883444 0.02775 0.0025 0.5
0.0883444 0.02775 -0.0025 0.5
0.0886222 0.0269175 0.0025 0.5
0.0886222 0.0269175 -0.0025 0.5
0.0886222 0.027195 1.2044e-20 0.5
0.0707098 0.05994 0.0025 0.5
0.0707098 0.05994 -0.0025 0.5
0.0886222 0.0274725 0.0025 0.5
0.0886222 0.0274725 -0.0025 0.5
0.0883444 0.02886 0.0025 0.5
0.0883444 0.02886 -0.0025 0.5
0.0886222 0.0280275 0.0025 0.5
0.0886222 0.0280275 -0.0025 0.5
0.0707833 0.0602763 0.0025 0.5
0.0707833 0.0602763 -0.0025 0.5
0.0886222 0.028305 -8.22717e-21 0.5
0.0707787 0.060492 9.12748e-19 0.5
0.0886222 0.0285825 0.0025 0.5
0.0886222 0.0285825 -0.0025 0.5
0.0707744 0.0607048 0.0025 0.5
0.0707744 0.0607048 -0.0025 0.5
0.0886222 0.0291375 0.0025 0.5
0.0886222 0.0291375 -0.0025 0.5
0.0883444 0.02997 0.0025 0.5
0.0883444 0.02997 -0.0025 0.5
0.0886222 0.029415 -6.85063e-19 0.5
0.0706792 0.06105 0.0025 0.5
0.0706792 0.06105 -0.0025 0.5
0.0886222 0.0296925 0.0025 0.5
0.0886222 0.0296925 -0.0025 0.5
0.0886222 0.0302475 0.0025 0.5
0.0886222 0.0302475 -0.0025 0.5
0.0883444 0.03108 0.0025 0.5
0.0883444 0.03108 -0.0025 0.5
0.0707477 0.0614219 0.0025 0.5
0.0707477 0.0614219 -0.0025 0.5
0.0886222 0.030525 6.22217e-19 0.5
0.0707445 0.061603 -6.3584e-19 0.5
0.0886222 0.0308025 0.0025 0.5
0.0886222 0.0308025 -0.0025 0.5
0.0707417 0.0617821 -0.0025 0.5
0.0707417 0.0617821 0.0025 0.5
0.0886222 0.0313575 0.0025 0.5
0.0886222 0.0313575 -0.0025 0.5
0.0883444 0.03219 0.0025 0.5
0.0883444 0.03219 -0.0025 0.5
0.0886222 0.031635 -3.88923e-21 0.5
0.0706551 0.06216 0.0025 0.5
0.0706551 0.06216 -0.0025 0.5
0.0886222 0.0319125 0.0025 0.5
0.0886222 0.0319125 -0.0025 0.5
0.0886222 0.0324675 0.0025 0.5
0.0886222 0.0324675 -0.0025 0.5
0.0883444 0.0333 0.0025 0.5
0.0883444 0.0333 -0.0025 0.5
0.070719 0.0625605 0.0025 0.5
0.070719 0.0625605 -0.0025 0.5
0.0886222 0.032745 0 0.5
0.0707169 0.0627137 -6.93173e-20 0.5
0.0886222 0.0330225 0.0025 0.5
0.0886222 0.0330225 -0.0025 0.5
0.070715 0.0628655 0.0025 0.5
0.070715 0.0628655 -0.0025 0.5
0.0886222 0.0335775 0.0025 0.5
0.0886222 0.0335775 -0.0025 0.5
0.0883444 0.03441 0.0025 0.5
0.0883444 0.03441 -0.0025 0.5
0.0706365 0.06327 0.0025 0.5
0.0706365 0.06327 -0.0025 0.5
0.0886222 0.033855 0 0.5
0.0886222 0.0341325 0.0025 0.5
0.0886222 0.0341325 -0.0025 0.5
0.0706961 0.0636934 0.0025 0.5
0.0706961 0.0636934 -0.0025 0.5
0.0886222 0.0346875 0.0025 0.5
0.0886222 0.0346875 -0.0025 0.5
0.0706946 0.063824 1.18073e-21 0.5
0.0883444 0.03552 0.0025 0.5
0.0883444 0.03552 -0.0025 0.5
0.0886222 0.034965 -3.39789e-22 0.5