0 	506.15 	7.02641e-05
0.000446734 	506.144 	7.02604e-05
0.000893467 	506.137 	7.02567e-05
0.0013402 	506.131 	7.02522e-05
0.00178693 	506.125 	7.02471e-05
0.00223367 	506.119 	7.02422e-05
0.0026804 	506.112 	7.02429e-05
0.00312714 	506.106 	7.02436e-05
0.00357387 	506.1 	7.02479e-05
0.0040206 	506.094 	7.02553e-05
0.00446734 	506.088 	7.0263e-05
0.00491407 	506.082 	7.02779e-05
0.0053608 	506.076 	7.02928e-05
0.00580754 	506.071 	7.03142e-05
0.00625427 	506.065 	7.03405e-05
0.00670101 	506.059 	7.03681e-05
0.00714774 	506.054 	7.04113e-05
0.00759447 	506.048 	7.04545e-05
0.00804121 	506.043 	7.05102e-05
0.00848794 	506.038 	7.05747e-05
0.00893467 	506.032 	7.06413e-05
0.00938141 	506.027 	7.07268e-05
0.00982814 	506.022 	7.08122e-05
0.0102749 	506.017 	7.09044e-05
0.0107216 	506.013 	7.10008e-05
0.0111683 	506.008 	7.10957e-05
0.0116151 	506.003 	7.11801e-05
0.0120618 	505.999 	7.12645e-05
0.0125085 	505.994 	7.13186e-05
0.0129553 	505.99 	7.13553e-05
0.013402 	505.986 	7.13784e-05
0.0138487 	505.981 	7.13242e-05
0.0142955 	505.977 	7.12701e-05
0.0147422 	505.973 	7.11279e-05
0.0151889 	505.969 	7.09408e-05
0.0156357 	505.966 	7.07249e-05
0.0160824 	505.962 	7.03732e-05
0.0165291 	505.958 	7.00215e-05
0.0169759 	505.955 	6.95465e-05
0.0174226 	505.951 	6.90156e-05
0.0178693 	505.948 	6.84499e-05
0.0183161 	505.944 	6.7745e-05
0.0187628 	505.941 	6.70402e-05
0.0192095 	505.938 	6.62288e-05
0.0196563 	505.935 	6.53745e-05
0.020103 	505.932 	6.44953e-05
0.0205497 	505.929 	6.3531e-05
0.0209965 	505.926 	6.25666e-05
0.0214432 	505.924 	6.15579e-05
0.0218899 	505.921 	6.05332e-05
0.0223367 	505.919 	5.95073e-05
0.0227834 	505.916 	5.84772e-05
0.0232302 	505.914 	5.74471e-05
0.0236769 	505.912 	5.64549e-05
0.0241236 	505.91 	5.54745e-05
0.0245704 	505.907 	5.45219e-05
0.0250171 	505.905 	5.36428e-05
0.0254638 	505.903 	5.27637e-05
0.0259106 	505.901 	5.20002e-05
0.0263573 	505.9 	5.12679e-05
0.026804 	505.898 	5.05907e-05
0.0272508 	505.896 	5.00424e-05
0.0276975 	505.894 	4.9494e-05
0.0281442 	505.892 	4.91175e-05
0.028591 	505.891 	4.87807e-05
0.0290377 	505.889 	4.85179e-05
0.0294844 	505.887 	4.84091e-05
0.0299312 	505.885 	4.83002e-05
0.0303779 	505.883 	4.83872e-05
0.0308246 	505.881 	4.85121e-05
0.0312714 	505.879 	4.87176e-05
0.0317181 	505.877 	4.90724e-05
0.0321648 	505.875 	4.94272e-05
0.0326116 	505.873 	4.99686e-05
0.0330583 	505.87 	5.05396e-05
0.033505 	505.868 	5.11831e-05
0.0339518 	505.865 	5.19475e-05
0.0343985 	505.862 	5.27119e-05
0.0348452 	505.859 	5.36202e-05
0.035292 	505.855 	5.45468e-05
0.0357387 	505.852 	5.55231e-05
0.0361854 	505.848 	5.65739e-05
0.0366322 	505.843 	5.76247e-05
0.0370789 	505.838 	5.87497e-05
0.0375256 	505.833 	5.98819e-05
0.0379724 	505.828 	6.10293e-05
0.0384191 	505.822 	6.21974e-05
0.0388658 	505.815 	6.33655e-05
0.0393126 	505.808 	6.45243e-05
0.0397593 	505.801 	6.56825e-05
0.040206 	505.792 	6.6817e-05
0.0406528 	505.783 	6.79224e-05
0.0410995 	505.774 	6.90279e-05
0.0415462 	505.764 	7.00469e-05
0.041993 	505.753 	7.10627e-05
0.0424397 	505.742 	7.20229e-05
0.0428864 	505.729 	7.29217e-05
0.0433332 	505.717 	7.38206e-05
0.0437799 	505.702 	7.45897e-05
0.0442266 	505.688 	7.53572e-05
0.0446734 	505.673 	7.60585e-05
0.0451201 	505.657 	7.66937e-05
0.0455668 	505.64 	7.73274e-05
0.0460136 	505.622 	7.78412e-05
0.0464603 	505.604 	7.83551e-05
0.046907 	505.585 	7.88148e-05
0.0473538 	505.566 	7.92255e-05
0.0478005 	505.546 	7.9633e-05
0.0482472 	505.525 	7.99596e-05
0.048694 	505.503 	8.02862e-05
0.0491407 	505.481 	8.05745e-05
0.0495874 	505.458 	8.08314e-05
0.0500342 	505.436 	8.10844e-05
0.0504809 	505.412 	8.12787e-05
0.0509276 	505.388 	8.14729e-05
0.0513744 	505.363 	8.16324e-05
0.0518211 	505.338 	8.17663e-05
0.0522678 	505.314 	8.18954e-05
0.0527146 	505.288 	8.19742e-05
0.0531613 	505.262 	8.20529e-05
0.053608 	505.236 	8.21065e-05
0.0540548 	505.21 	8.21434e-05
0.0545015 	505.184 	8.21777e-05
0.0549482 	505.157 	8.21916e-05
0.055395 	505.131 	8.22056e-05
0.0558417 	505.104 	8.22261e-05
0.0562884 	505.077 	8.22506e-05
0.0567352 	505.048 	8.21439e-05
0.0571819 	505.014 	8.12141e-05
0.0576286 	504.98 	8.02843e-05
0.0580754 	504.941 	7.85091e-05
0.0585221 	504.9 	7.62789e-05
0.0589688 	504.859 	7.39876e-05
0.0594156 	504.818 	7.13819e-05
0.0598623 	504.777 	6.87761e-05
0.060309 	504.736 	6.61389e-05
0.0607558 	504.695 	6.34864e-05
0.0612025 	504.655 	6.08375e-05
0.0616492 	504.614 	5.82038e-05
0.062096 	504.573 	5.55701e-05
0.0625427 	504.533 	5.29697e-05
0.0629894 	504.492 	5.03837e-05
0.0634362 	504.451 	4.78111e-05
0.0638829 	504.411 	4.52877e-05
0.0643296 	504.37 	4.27644e-05
0.0647764 	504.329 	4.02928e-05
0.0652231 	504.289 	3.78409e-05
0.0656698 	504.248 	3.54073e-05
0.0661166 	504.208 	3.30325e-05
0.0665633 	504.167 	3.06576e-05
0.0670101 	504.126 	2.83437e-05
0.0674568 	504.086 	2.60501e-05
0.0679035 	504.045 	2.37786e-05
0.0683503 	504.005 	2.15694e-05
0.068797 	503.964 	1.93602e-05
0.0692437 	503.924 	1.72187e-05
0.0696905 	503.883 	1.50968e-05
0.0701372 	503.842 	1.30008e-05
0.0705839 	503.802 	1.09689e-05
0.0710307 	503.761 	8.937e-06
0.0714774 	503.721 	6.97919e-06
0.0719241 	503.68 	5.03991e-06
0.0723709 	503.64 	3.13044e-06
0.0728176 	503.6 	1.28655e-06
0.0732643 	503.559 	-5.57332e-07
0.0737111 	503.519 	-2.32009e-06
0.0741578 	503.478 	-4.06563e-06
0.0746045 	503.438 	-5.77692e-06
0.0750513 	503.397 	-7.42094e-06
0.075498 	503.357 	-9.06497e-06
0.0759447 	503.317 	-1.06197e-05
0.0763915 	503.276 	-1.21588e-05
0.0768382 	503.236 	-1.36584e-05
0.0772849 	503.196 	-1.50886e-05
0.0777317 	503.155 	-1.65189e-05
0.0781784 	503.115 	-1.78504e-05
0.0786251 	503.075 	-1.91677e-05
0.0790719 	503.034 	-2.04396e-05
0.0795186 	502.994 	-2.16396e-05
0.0799653 	502.954 	-2.28396e-05
0.0804121 	502.914 	-2.39296e-05
0.0808588 	502.873 	-2.50073e-05
0.0813055 	502.833 	-2.60326e-05
0.0817523 	502.793 	-2.6983e-05
0.082199 	502.753 	-2.79334e-05
0.0826457 	502.712 	-2.8761e-05
0.0830925 	502.672 	-2.95786e-05
0.0835392 	502.632 	-3.03358e-05
0.0839859 	502.592 	-3.10151e-05
0.0844327 	502.552 	-3.16945e-05
0.0848794 	502.511 	-3.22373e-05
0.0853261 	502.471 	-3.27729e-05
0.0857729 	502.431 	-3.32398e-05
0.0862196 	502.391 	-3.36267e-05
0.0866663 	502.351 	-3.40136e-05
0.0871131 	502.311 	-3.42515e-05
0.0875598 	502.27 	-3.44855e-05
0.0880065 	502.23 	-3.46436e-05
0.0884533 	502.19 	-3.47219e-05
0.0889 	502.15 	-3.48003e-05
