# f_l  POINT_DATA 1351
#  x  y  z  f_l
0.0561105 0.00167136 -4.81012e-20 0.5
0.0561146 0.00111 0.0025 0.5
0.0561146 0.00111 -0.0025 0.5
0.0560897 0.00222 0.0025 0.5
0.0560897 0.00222 -0.0025 0.5
0.0561099 0.00165674 0.0025 0.5
0.0561099 0.00165674 -0.0025 0.5
0.0561095 0.00167365 0.0025 0.5
0.0561095 0.00167365 -0.0025 0.5
0.056159 0.00277564 -4.19725e-22 0.5
0.0562346 0.000631102 0 0.5
0.0561224 0.00333 0.0025 0.5
0.0561224 0.00333 -0.0025 0.5
0.0561581 0.00273506 0.0025 0.5
0.0561581 0.00273506 -0.0025 0.5
0.05616 0.00281687 0.0025 0.5
0.05616 0.00281687 -0.0025 0.5
0.0562324 0.000669153 0.0025 0.5
0.0562324 0.000669153 -0.0025 0.5
0.0562109 0.00388671 -8.58685e-22 0.5
0.0562085 0.00379477 0.0025 0.5
0.0562085 0.00379477 -0.0025 0.5
0.0561619 0.00444 0.0025 0.5
0.0561619 0.00444 -0.0025 0.5
0.0562136 0.00398036 0.0025 0.5
0.0562136 0.00398036 -0.0025 0.5
0.0562704 0.00499831 3.57465e-21 0.5
0.0562656 0.00484766 0.0025 0.5
0.0562656 0.00484766 -0.0025 0.5
0.0562104 0.00555 0.0025 0.5
0.0562104 0.00555 -0.0025 0.5
0.0562756 0.00515226 0.0025 0.5
0.0562756 0.00515226 -0.0025 0.5
0.0563347 0.00611028 -4.02619e-21 0.5
0.0563271 0.00589626 0.0025 0.5
0.0563271 0.00589626 -0.0025 0.5
0.0562674 0.00666 0.0025 0.5
0.0562674 0.00666 -0.0025 0.5
0.0566738 0.000754459 0.0025 0.5
0.0566738 0.000754459 -0.0025 0.5
0.056343 0.00632959 0.0025 0.5
0.056343 0.00632959 -0.0025 0.5
0.056393 0.00703417 -1.46483e-20 0.5
0.0563897 0.00694375 0.0025 0.5
0.0563897 0.00694375 -0.0025 0.5
0.0563314 0.00777 0.0025 0.5
0.0563314 0.00777 -0.0025 0.5
0.0564118 0.00750835 -0.00132138 0.5
0.0564118 0.00750835 0.00132138 0.5
0.0564118 0.00750835 0.0025 0.5
0.0564118 0.00750835 -0.0025 0.5
0.0569516 0.0002775 0.0025 0.5
0.0569516 0.0002775 -0.0025 0.5
0.0564505 0.00799304 0.00149534 0.5
0.0564505 0.00799304 -0.00149534 0.5
0.0564505 0.00799304 0.0025 0.5
0.0564505 0.00799304 -0.0025 0.5
0.0564632 0.008325 -7.1527e-20 0.5
0.0563988 0.00888 0.0025 0.5
0.0563988 0.00888 -0.0025 0.5
0.0564777 0.0086842 0.00161802 0.5
0.0564777 0.0086842 -0.00161802 0.5
0.0564777 0.0086842 0.0025 0.5
0.0564777 0.0086842 -0.0025 0.5
0.0572294 0.0002775 0 0.5
0.056506 0.00904757 0.00174519 0.5
0.056506 0.00904757 -0.00174519 0.5
0.056506 0.00904757 0.0025 0.5
0.056506 0.00904757 -0.0025 0.5
0.0565205 0.009435 -5.70935e-20 0.5
0.0564718 0.00999 0.0025 0.5
0.0564718 0.00999 -0.0025 0.5
0.0565401 0.00985653 -0.00189876 0.5
0.0565401 0.00985653 0.00189876 0.5
0.0565401 0.00985653 0.0025 0.5
0.0565401 0.00985653 -0.0025 0.5
0.0565571 0.0101065 0.00197526 0.5
0.0565571 0.0101065 -0.00197526 0.5
0.0565571 0.0101065 0.0025 0.5
0.0565571 0.0101065 -0.0025 0.5
0.0565766 0.010545 1.06211e-19 0.5
0.0575072 0.0002775 0.0025 0.5
0.0575072 0.0002775 -0.0025 0.5
0.0566028 0.0111 -0.0025 0.5
0.0566028 0.0111 0.0025 0.5
0.0566294 0.0110557 0.00230057 0.5
0.0566294 0.0110557 -0.00230057 0.5
0.0566294 0.0110557 0.0025 0.5
0.0566294 0.0110557 -0.0025 0.5
0.0566341 0.0111396 0.00232162 0.5
0.0566341 0.0111396 -0.00232162 0.5
0.0566341 0.0111396 0.0025 0.5
0.0566341 0.0111396 -0.0025 0.5
0.057785 0.000555 -0.0025 0.5
0.057785 0.000555 0.0025 0.5
0.0566933 0.011655 1.57277e-19 0.5
0.0566737 0.0114949 -0.0025 0.5
0.0566738 0.0114949 0.0025 0.5
0.0567459 0.0121379 -0.00217522 0.5
0.0567459 0.0121379 0.00217522 0.5
0.0567459 0.0121379 -0.0025 0.5
0.0567459 0.0121379 0.0025 0.5
0.0580628 0.0002775 0.0025 0.5
0.0580628 0.0002775 -0.0025 0.5
0.0567766 0.0123127 -0.00203734 0.5
0.0567766 0.0123127 0.00203734 0.5
0.0567766 0.0123127 0.0025 0.5
0.0567766 0.0123127 -0.0025 0.5
0.0568048 0.01221 0.0025 0.5
0.0568048 0.01221 -0.0025 0.5
0.0568321 0.012765 -2.47882e-19 0.5
0.0583406 0.0002775 0 0.5
0.0568757 0.0131183 -0.00159138 0.5
0.0568757 0.0131183 0.00159138 0.5
0.0568757 0.0131183 0.0025 0.5
0.0568757 0.0131183 -0.0025 0.5
0.0569904 0.01332 0.0025 0.5
0.0569904 0.01332 -0.0025 0.5
0.056983 0.0136289 0.0025 0.5
0.056983 0.0136289 -0.0025 0.5
0.0586184 0.0002775 0.0025 0.5
0.0586184 0.0002775 -0.0025 0.5
0.0570153 0.0138545 5.88424e-20 0.5
0.0570445 0.0140596 0.0025 0.5
0.0570445 0.0140596 -0.0025 0.5
0.0588963 0.000555 -0.0025 0.5
0.0588963 0.000555 0.0025 0.5
0.0571637 0.01443 0.0025 0.5
0.0571637 0.01443 -0.0025 0.5
0.0572773 0.0149686 4.92216e-20 0.5
0.0591741 0.0002775 0.0025 0.5
0.0591741 0.0002775 -0.0025 0.5
0.0572753 0.0149392 0.0025 0.5
0.0572753 0.0149392 -0.0025 0.5
0.0572885 0.0150441 0.0025 0.5
0.0572885 0.0150441 -0.0025 0.5
0.0573261 0.01554 0.0025 0.5
0.0573261 0.01554 -0.0025 0.5
0.0594519 0.0002775 -7.45167e-21 0.5
0.0574797 0.0159338 -1.44526e-20 0.5
0.0574715 0.0158531 0.0025 0.5
0.0574715 0.0158531 -0.0025 0.5
0.0597297 0.0002775 0.0025 0.5
0.0597297 0.0002775 -0.0025 0.5
0.0575251 0.0163904 -0.00133055 0.5
0.0575251 0.0163904 0.00133055 0.5
0.0575251 0.0163904 0.0025 0.5
0.0575251 0.0163904 -0.0025 0.5
0.0574764 0.01665 0.0025 0.5
0.0574764 0.01665 -0.0025 0.5
0.0576039 0.0168309 0.00168518 0.5
0.0576039 0.0168309 -0.00168518 0.5
0.0600075 0.000555 -0.0025 0.5
0.0600075 0.000555 0.0025 0.5
0.0576039 0.0168309 0.0025 0.5
0.0576039 0.0168309 -0.0025 0.5
0.0576346 0.017205 -6.33698e-20 0.5
0.0576641 0.0176392 -0.00195606 0.5
0.0576641 0.0176392 0.00195606 0.5
0.0576076 0.01776 0.0025 0.5
0.0576076 0.01776 -0.0025 0.5
0.0602853 0.0002775 0.0025 0.5
0.0602853 0.0002775 -0.0025 0.5
0.0576641 0.0176392 0.0025 0.5
0.0576641 0.0176392 -0.0025 0.5
0.0576914 0.0178535 0.00207867 0.5
0.0576914 0.0178535 -0.00207867 0.5
0.0576914 0.0178535 0.0025 0.5
0.0576914 0.0178535 -0.0025 0.5
0.0577189 0.018315 -1.52555e-20 0.5
0.0605631 0.0002775 -9.93434e-23 0.5
0.057785 0.0186778 -0.0025 0.5
0.057785 0.0186778 0.0025 0.5
0.057803 0.018852 -0.00241911 0.5
0.057803 0.018852 0.00241911 0.5
0.057803 0.018852 0.0025 0.5
0.057803 0.018852 -0.0025 0.5
0.0578154 0.0189004 -0.00236312 0.5
0.0578154 0.0189004 0.00236312 0.5
0.0578251 0.01887 0.0025 0.5
0.0578251 0.01887 -0.0025 0.5
0.0578154 0.0189004 0.0025 0.5
0.0578154 0.0189004 -0.0025 0.5
0.0608409 0.0002775 0.0025 0.5
0.0608409 0.0002775 -0.0025 0.5
0.0579132 0.019425 5.39738e-20 0.5
0.0611187 0.000555 -0.0025 0.5
0.0611187 0.000555 0.0025 0.5
0.0579723 0.0197929 -0.00165739 0.5
0.0579723 0.0197929 0.00165739 0.5
0.0579723 0.0197929 -0.0025 0.5
0.0579723 0.0197929 0.0025 0.5
0.0613966 0.0002775 -0.0025 0.5
0.0613966 0.0002775 0.0025 0.5
0.0581184 0.01998 0.0025 0.5
0.0581184 0.01998 -0.0025 0.5
0.0581429 0.0203375 0.0025 0.5
0.0581429 0.0203375 -0.0025 0.5
0.0616744 0.0002775 0 0.5
0.0581925 0.020568 1.06992e-20 0.5
0.0582065 0.0206689 -0.0025 0.5
0.0582065 0.0206689 0.0025 0.5
0.0619522 0.0002775 -0.0025 0.5
0.0619522 0.0002775 0.0025 0.5
0.0583531 0.02109 -0.0025 0.5
0.0583531 0.02109 0.0025 0.5
0.06223 0.000555 -0.0025 0.5
0.06223 0.000555 0.0025 0.5
0.0585091 0.0214767 0.0025 0.5
0.0585091 0.0214767 -0.0025 0.5
0.0585368 0.021664 -7.70774e-21 0.5
0.0625078 0.0002775 0.0025 0.5
0.0625078 0.0002775 -0.0025 0.5
0.0585661 0.0218703 0.0025 0.5
0.0585661 0.0218703 -0.0025 0.5
0.0585512 0.0222 0.0025 0.5
0.0585512 0.0222 -0.0025 0.5
0.0627856 0.0002775 3.76374e-21 0.5
0.0586948 0.0224012 0.00159367 0.5
0.0586948 0.0224012 -0.00159367 0.5
0.0586948 0.0224012 0.0025 0.5
0.0586948 0.0224012 -0.0025 0.5
0.0587331 0.022755 4.4244e-19 0.5
0.0630634 0.0002775 -0.0025 0.5
0.0630634 0.0002775 0.0025 0.5
0.0587695 0.0231834 -0.00192952 0.5
0.0587695 0.0231834 0.00192952 0.5
0.0587169 0.02331 -0.0025 0.5
0.0587169 0.02331 0.0025 0.5
0.0587695 0.0231834 0.0025 0.5
0.0587695 0.0231834 -0.0025 0.5
0.0588038 0.0234024 -0.0020839 0.5
0.0588038 0.0234024 0.0020839 0.5
0.0588038 0.0234024 -0.0025 0.5
0.0588038 0.0234024 0.0025 0.5
0.0633413 0.000555 -0.0025 0.5
0.0633413 0.000555 0.0025 0.5
0.0588374 0.023865 4.06674e-19 0.5
0.0636191 0.0002775 0.0025 0.5
0.0636191 0.0002775 -0.0025 0.5
0.0588962 0.024372 0.0025 0.5
0.0588962 0.024372 -0.0025 0.5
0.0589003 0.024416 0.00248191 0.5
0.0589003 0.024416 -0.00248191 0.5
0.0589003 0.024416 0.0025 0.5
0.0589003 0.024416 -0.0025 0.5
0.0589016 0.0244254 -0.0024757 0.5
0.0589016 0.0244254 0.0024757 0.5
0.0589016 0.0244254 0.0025 0.5
0.0589016 0.0244254 -0.0025 0.5
0.0589048 0.02442 0.0025 0.5
0.0589048 0.02442 -0.0025 0.5
0.0638969 0.0002775 -5.95927e-22 0.5
0.0589681 0.024975 -8.86469e-19 0.5
0.0641747 0.0002775 0.0025 0.5
0.0641747 0.0002775 -0.0025 0.5
0.0590354 0.025391 -0.00187372 0.5
0.0590354 0.025391 0.00187372 0.5
0.0590354 0.025391 -0.0025 0.5
0.0590354 0.025391 0.0025 0.5
0.0591746 0.02553 0.0025 0.5
0.0591746 0.02553 -0.0025 0.5
0.0644525 0.000555 -0.0025 0.5
0.0644525 0.000555 0.0025 0.5
0.059186 0.0258194 0.0025 0.5
0.059186 0.0258194 -0.0025 0.5
0.0592359 0.026055 -1.47033e-19 0.5
0.0647303 0.0002775 0.0025 0.5
0.0647303 0.0002775 -0.0025 0.5
0.059276 0.0262607 0.0025 0.5
0.059276 0.0262607 -0.0025 0.5
0.0650081 0.0002775 0 0.5
0.0594429 0.02664 0.0025 0.5
0.0594429 0.02664 -0.0025 0.5
0.0652859 0.0002775 0.0025 0.5
0.0652859 0.0002775 -0.0025 0.5
0.0596064 0.0270407 0.0025 0.5
0.0596064 0.0270407 -0.0025 0.5
0.0596189 0.0271557 -9.84571e-19 0.5
0.0655638 0.000555 -0.0025 0.5
0.0655638 0.000555 0.0025 0.5
0.0596645 0.0274074 -0.0025 0.5
0.0596645 0.0274074 0.0025 0.5
0.0596569 0.02775 -0.0025 0.5
0.0596569 0.02775 0.0025 0.5
0.0658416 0.0002775 0.0025 0.5
0.0658416 0.0002775 -0.0025 0.5
0.0598031 0.0279542 0.00158039 0.5
0.0598031 0.0279542 -0.00158039 0.5
0.0598031 0.0279542 0.0025 0.5
0.0598031 0.0279542 -0.0025 0.5
0.0661194 0.0002775 -1.81913e-21 0.5
0.0598426 0.028305 3.21869e-23 0.5
0.0598794 0.0287321 -0.00192379 0.5
0.0598794 0.0287321 0.00192379 0.5
0.0663972 0.0002775 0.0025 0.5
0.0663972 0.0002775 -0.0025 0.5
0.0598794 0.0287321 0.0025 0.5
0.0598794 0.0287321 -0.0025 0.5
0.059827 0.02886 -0.0025 0.5
0.059827 0.02886 0.0025 0.5
0.0599145 0.0289529 0.00208164 0.5
0.0599145 0.0289529 -0.00208164 0.5
0.0599145 0.0289529 0.0025 0.5
0.0599145 0.0289529 -0.0025 0.5
0.066675 0.000555 -0.0025 0.5
0.066675 0.000555 0.0025 0.5
0.0599485 0.029415 -6.52482e-19 0.5
0.0669528 0.0002775 0.0025 0.5
0.0669528 0.0002775 -0.0025 0.5
0.0599465 0.02997 0.0025 0.5
0.0599465 0.02997 -0.0025 0.5
0.0599721 0.0299347 -0.00234086 0.5
0.0599721 0.0299347 0.00234086 0.5
0.0599721 0.0299347 0.0025 0.5
0.0599721 0.0299347 -0.0025 0.5
0.0599778 0.0299997 0.00236628 0.5
0.0599778 0.0299997 -0.00236628 0.5
0.0599778 0.0299997 0.0025 0.5
0.0599778 0.0299997 -0.0025 0.5
0.0672306 0.0002775 9.10876e-20 0.5
0.0600075 0.0303183 -0.0025 0.5
0.0600075 0.0303183 0.0025 0.5
0.0599997 0.030525 7.95454e-19 0.5
0.0675084 0.0002775 0.0025 0.5
0.0675084 0.0002775 -0.0025 0.5
0.0600671 0.0310205 0.00223187 0.5
0.0600671 0.0310205 -0.00223187 0.5
0.0600671 0.0310205 0.0025 0.5
0.0600671 0.0310205 -0.0025 0.5
0.0601419 0.03108 -0.0025 0.5
0.0601419 0.03108 0.0025 0.5
0.0601166 0.031189 -0.00200894 0.5
0.0601166 0.031189 0.00200894 0.5
0.0601166 0.031189 0.0025 0.5
0.0601166 0.031189 -0.0025 0.5
0.0677863 0.000555 -0.0025 0.5
0.0677863 0.000555 0.0025 0.5
0.0601969 0.031635 0 0.5
0.0680641 0.0002775 0.0025 0.5
0.0680641 0.0002775 -0.0025 0.5
0.0602573 0.0319405 -0.00137611 0.5
0.0602573 0.0319405 0.00137611 0.5
0.0602573 0.0319405 0.0025 0.5
0.0602573 0.0319405 -0.0025 0.5
0.0683419 0.0002775 1.14121e-19 0.5
0.0604536 0.03219 0.0025 0.5
0.0604536 0.03219 -0.0025 0.5
0.0686197 0.0002775 0.0025 0.5
0.0686197 0.0002775 -0.0025 0.5
0.0606511 0.0327324 -8.54693e-23 0.5
0.0606407 0.0326675 0.0025 0.5
0.0606407 0.0326675 -0.0025 0.5
0.0688975 0.000555 -0.0025 0.5
0.0688975 0.000555 0.0025 0.5
0.0606782 0.0328599 0.0025 0.5
0.0606782 0.0328599 -0.0025 0.5
0.0691753 0.0002775 0.0025 0.5
0.0691753 0.0002775 -0.0025 0.5
0.0607052 0.0333 0.0025 0.5
0.0607052 0.0333 -0.0025 0.5
0.0694531 0.0002775 9.36031e-20 0.5
0.0608558 0.0335627 0.00131672 0.5
0.0608558 0.0335627 -0.00131672 0.5
0.0608558 0.0335627 0.0025 0.5
0.0608558 0.0335627 -0.0025 0.5
0.0608886 0.033855 7.62963e-20 0.5
0.0697309 0.0002775 0.0025 0.5
0.0697309 0.0002775 -0.0025 0.5
0.0609076 0.0341991 -0.00154999 0.5
0.0609076 0.0341991 0.00154999 0.5
0.0609076 0.0341991 0.0025 0.5
0.0609076 0.0341991 -0.0025 0.5
0.0608367 0.03441 0.0025 0.5
0.0608367 0.03441 -0.0025 0.5
0.0700088 0.000555 -0.0025 0.5
0.0700088 0.000555 0.0025 0.5
0.0609477 0.0345809 0.00173022 0.5
0.0609477 0.0345809 -0.00173022 0.5
0.0609477 0.0345809 0.0025 0.5
0.0609477 0.0345809 -0.0025 0.5
0.0609668 0.034965 2.18812e-21 0.5
0.0702866 0.0002775 0.0025 0.5
0.0702866 0.0002775 -0.0025 0.5
0.0609986 0.0354 -0.00195928 0.5
0.0609986 0.0354 0.00195928 0.5
0.0705644 0.0002775 2.66209e-19 0.5
0.0609986 0.0354 0.0025 0.5
0.0609986 0.0354 -0.0025 0.5
0.0609438 0.03552 0.0025 0.5
0.0609438 0.03552 -0.0025 0.5
0.0610273 0.0356113 0.00208872 0.5
0.0610273 0.0356113 -0.00208872 0.5
0.0610273 0.0356113 0.0025 0.5
0.0610273 0.0356113 -0.0025 0.5
0.0708422 0.0002775 0.0025 0.5
0.0708422 0.0002775 -0.0025 0.5
0.0610569 0.036075 -2.76068e-20 0.5
0.07112 0.000555 -0.0025 0.5
0.07112 0.000555 0.0025 0.5
0.0610774 0.0365887 -0.00231375 0.5
0.0610774 0.0365887 0.00231375 0.5
0.0610472 0.03663 0.0025 0.5
0.0610472 0.03663 -0.0025 0.5
0.0610774 0.0365887 0.0025 0.5
0.0610774 0.0365887 -0.0025 0.5
0.0610832 0.0366655 0.00234023 0.5
0.0610832 0.0366655 -0.00234023 0.5
0.0610832 0.0366655 0.0025 0.5
0.0610832 0.0366655 -0.0025 0.5
0.0713978 0.0002775 0.0025 0.5
0.0713978 0.0002775 -0.0025 0.5
0.0611024 0.037185 2.55716e-20 0.5
0.0716756 0.0002775 9.36031e-20 0.5
0.0611025 0.03774 0.0025 0.5
0.0611025 0.03774 -0.0025 0.5
0.0611103 0.0377315 -0.00246184 0.5
0.0611103 0.0377315 0.00246184 0.5
0.0611103 0.0377315 0.0025 0.5
0.0611103 0.0377315 -0.0025 0.5
0.0611107 0.037748 0.00246394 0.5
0.0611107 0.037748 -0.00246394 0.5
0.0611107 0.037748 0.0025 0.5
0.0611107 0.037748 -0.0025 0.5
0.0611188 0.0379027 -0.0025 0.5
0.0611188 0.0379027 0.0025 0.5
0.0719534 0.0002775 0.0025 0.5
0.0719534 0.0002775 -0.0025 0.5
0.0611184 0.038295 2.78675e-20 0.5
0.0722313 0.000555 -0.0025 0.5
0.0722313 0.000555 0.0025 0.5
0.0611623 0.0388065 -0.00230389 0.5
0.0611623 0.0388065 0.00230389 0.5
0.0611623 0.0388065 0.0025 0.5
0.0611623 0.0388065 -0.0025 0.5
0.0611824 0.0389136 -0.0022137 0.5
0.0611824 0.0389136 0.0022137 0.5
0.0612134 0.03885 0.0025 0.5
0.0612134 0.03885 -0.0025 0.5
0.0611824 0.0389136 0.0025 0.5
0.0611824 0.0389136 -0.0025 0.5
0.0725091 0.0002775 0.0025 0.5
0.0725091 0.0002775 -0.0025 0.5
0.0727869 0.0002775 1.145e-19 0.5
0.0612333 0.039405 3.41187e-20 0.5
0.0612638 0.0398151 -0.00184733 0.5
0.0612638 0.0398151 0.00184733 0.5
0.0612638 0.0398151 0.0025 0.5
0.0612638 0.0398151 -0.0025 0.5
0.0730647 0.0002775 0.0025 0.5
0.0730647 0.0002775 -0.0025 0.5
0.0613772 0.03996 0.0025 0.5
0.0613772 0.03996 -0.0025 0.5
0.0613193 0.0401603 -0.0015976 0.5
0.0613193 0.0401603 0.0015976 0.5
0.0613193 0.0401603 -0.0025 0.5
0.0613193 0.0401603 0.0025 0.5
0.0733425 0.000555 -0.0025 0.5
0.0733425 0.000555 0.0025 0.5
0.0613503 0.040515 -1.44886e-20 0.5
0.0736203 0.0002775 0.0025 0.5
0.0736203 0.0002775 -0.0025 0.5
0.0613698 0.0408192 -0.00137049 0.5
0.0613698 0.0408192 0.00137049 0.5
0.0613698 0.0408192 -0.0025 0.5
0.0613698 0.0408192 0.0025 0.5
0.0738981 0.0002775 1.12679e-19 0.5
0.0614958 0.04107 0.0025 0.5
0.0614958 0.04107 -0.0025 0.5
0.0614492 0.0414001 0.0025 0.5
0.0614492 0.0414001 -0.0025 0.5
0.0741759 0.0002775 0.0025 0.5
0.0741759 0.0002775 -0.0025 0.5
0.0614638 0.0416159 0 0.5
0.0614765 0.0418226 0.0025 0.5
0.0614765 0.0418226 -0.0025 0.5
0.0744538 0.000555 -0.0025 0.5
0.0744538 0.000555 0.0025 0.5
0.0615832 0.04218 0.0025 0.5
0.0615832 0.04218 -0.0025 0.5
0.0747316 0.0002775 0.0025 0.5
0.0747316 0.0002775 -0.0025 0.5
0.0615697 0.0426305 -0.0025 0.5
0.0615697 0.0426305 0.0025 0.5
0.0615754 0.0427315 0 0.5
0.0750094 0.0002775 1.14375e-19 0.5
0.0615803 0.0428289 -0.0025 0.5
0.0615803 0.0428289 0.0025 0.5
0.0752872 0.0002775 0.0025 0.5
0.0752872 0.0002775 -0.0025 0.5
0.0616476 0.04329 0.0025 0.5
0.0616476 0.04329 -0.0025 0.5
0.075565 0.000555 -0.0025 0.5
0.075565 0.000555 0.0025 0.5
0.0616751 0.0438443 -1.80349e-19 0.5
0.0616752 0.0438442 0.0025 0.5
0.0616752 0.0438442 -0.0025 0.5
0.0616752 0.0438459 0.0025 0.5
0.0616752 0.0438459 -0.0025 0.5
0.0758428 0.0002775 0.0025 0.5
0.0758428 0.0002775 -0.0025 0.5
0.0616938 0.0444 0.0025 0.5
0.0616938 0.0444 -0.0025 0.5
0.0761206 0.0002775 1.14623e-19 0.5
0.061744 0.0448855 0.0025 0.5
0.061744 0.0448855 -0.0025 0.5
0.0617459 0.0449562 -4.00127e-20 0.5
0.0763984 0.0002775 0.0025 0.5
0.0763984 0.0002775 -0.0025 0.5
0.0617477 0.0450282 0.0025 0.5
0.0617477 0.0450282 -0.0025 0.5
0.0766763 0.000555 -0.0025 0.5
0.0766763 0.000555 0.0025 0.5
0.061725 0.04551 0.0025 0.5
0.061725 0.04551 -0.0025 0.5
0.0769541 0.0002775 0.0025 0.5
0.0769541 0.0002775 -0.0025 0.5
0.0617852 0.0459543 0.0025 0.5
0.0617852 0.0459543 -0.0025 0.5
0.0617871 0.0460661 -6.10461e-22 0.5
0.0617886 0.0461791 0.0025 0.5
0.0617886 0.0461791 -0.0025 0.5
0.0772319 0.0002775 1.08196e-19 0.5
0.0617437 0.04662 0.0025 0.5
0.0617437 0.04662 -0.0025 0.5
0.0775097 0.0002775 0.0025 0.5
0.0775097 0.0002775 -0.0025 0.5
0.0618064 0.0470431 0.0025 0.5
0.0618064 0.0470431 -0.0025 0.5
0.0618075 0.0471757 2.38757e-20 0.5
0.0777875 0.000555 -0.0025 0.5
0.0777875 0.000555 0.0025 0.5
0.0618084 0.0473089 0.0025 0.5
0.0618084 0.0473089 -0.0025 0.5
0.0617534 0.04773 0.0025 0.5
0.0617534 0.04773 -0.0025 0.5
0.0780653 0.0002775 0.0025 0.5
0.0780653 0.0002775 -0.0025 0.5
0.0783431 0.0002775 8.26565e-20 0.5
0.0618171 0.0481425 0.0025 0.5
0.0618171 0.0481425 -0.0025 0.5
0.0618175 0.0482852 -2.21563e-18 0.5
0.0618176 0.0484281 0.0025 0.5
0.0618176 0.0484281 -0.0025 0.5
0.0786209 0.0002775 0.0025 0.5
0.0786209 0.0002775 -0.0025 0.5
0.0617558 0.04884 -0.0025 0.5
0.0617558 0.04884 0.0025 0.5
0.0788988 0.000555 -0.0025 0.5
0.0788988 0.000555 0.0025 0.5
0.0618153 0.0492542 0.0025 0.5
0.0618153 0.0492542 -0.0025 0.5
0.0618146 0.0493944 2.05901e-18 0.5
0.0791766 0.0002775 0.0025 0.5
0.0791766 0.0002775 -0.0025 0.5
0.0618134 0.0495339 0.0025 0.5
0.0618134 0.0495339 -0.0025 0.5
0.0794544 0.0002775 9.54222e-20 0.5
0.0617472 0.04995 0.0025 0.5
0.0617472 0.04995 -0.0025 0.5
0.0617924 0.0503871 0.0025 0.5
0.0617924 0.0503871 -0.0025 0.5
0.0797322 0.0002775 0.0025 0.5
0.0797322 0.0002775 -0.0025 0.5
0.0617906 0.0505037 -5.02565e-20 0.5
0.0617885 0.050619 0.0025 0.5
0.0617885 0.050619 -0.0025 0.5
0.08001 0.000555 -0.0025 0.5
0.08001 0.000555 0.0025 0.5
0.0617264 0.05106 0.0025 0.5
0.0617264 0.05106 -0.0025 0.5
0.0802878 0.0002775 0.0025 0.5
0.0802878 0.0002775 -0.0025 0.5
0.0617489 0.0515405 0.0025 0.5
0.0617489 0.0515405 -0.0025 0.5
0.0617471 0.0516137 -2.87097e-19 0.5
0.061745 0.0516856 -0.0025 0.5
0.061745 0.0516856 0.0025 0.5
0.0805656 0.0002775 1.15842e-19 0.5
0.0616943 0.05217 0.0025 0.5
0.0616943 0.05217 -0.0025 0.5
0.0808434 0.0002775 0.0025 0.5
0.0808434 0.0002775 -0.0025 0.5
0.0616757 0.0527262 -7.21201e-20 0.5
0.0811213 0.000555 -0.0025 0.5
0.0811213 0.000555 0.0025 0.5
0.0616759 0.0527235 0.0025 0.5
0.0616759 0.0527235 -0.0025 0.5
0.0616758 0.0527264 0.0025 0.5
0.0616758 0.0527264 -0.0025 0.5
0.0813991 0.0002775 0.0025 0.5
0.0813991 0.0002775 -0.0025 0.5
0.0616496 0.05328 0.0025 0.5
0.0616496 0.05328 -0.0025 0.5
0.0816769 0.0002775 9.5745e-20 0.5
0.0615859 0.0537467 0.0025 0.5
0.0615859 0.0537467 -0.0025 0.5
0.0615818 0.0538379 -2.21605e-18 0.5
0.0615772 0.0539321 0.0025 0.5
0.0615772 0.0539321 -0.0025 0.5
0.0819547 0.0002775 0.0025 0.5
0.0819547 0.0002775 -0.0025 0.5
0.0615926 0.05439 0.0025 0.5
0.0615926 0.05439 -0.0025 0.5
0.0822325 0.000555 -0.0025 0.5
0.0822325 0.000555 0.0025 0.5
0.0614947 0.0547655 0.0025 0.5
0.0614947 0.0547655 -0.0025 0.5
0.0614854 0.0549515 3.71832e-18 0.5
0.0825103 0.0002775 0.0025 0.5
0.0825103 0.0002775 -0.0025 0.5
0.0614753 0.0551438 0.0025 0.5
0.0614753 0.0551438 -0.0025 0.5
0.0827881 0.0002775 8.32524e-20 0.5
0.0615244 0.0555 -0.0025 0.5
0.0615244 0.0555 0.0025 0.5
0.061408 0.0557889 0.0025 0.5
0.061408 0.0557889 -0.0025 0.5
0.0614036 0.0558776 -5.49121e-18 0.5
0.0830659 0.0002775 0.0025 0.5
0.0830659 0.0002775 -0.0025 0.5
0.0613786 0.0563504 0.00133071 0.5
0.0613786 0.0563504 -0.00133071 0.5
0.0613786 0.0563504 0.0025 0.5
0.0613786 0.0563504 -0.0025 0.5
0.0833437 0.000555 -0.0025 0.5
0.0833437 0.000555 0.0025 0.5
0.0614469 0.05661 0.0025 0.5
0.0614469 0.05661 -0.0025 0.5
0.0613297 0.0568207 0.00155081 0.5
0.0613297 0.0568207 -0.00155081 0.5
0.0613297 0.0568207 0.0025 0.5
0.0613297 0.0568207 -0.0025 0.5
0.0836216 0.0002775 0.0025 0.5
0.0836216 0.0002775 -0.0025 0.5
0.0613127 0.057165 1.18938e-18 0.5
0.0838994 0.0002775 3.228e-22 0.5
0.0612926 0.0575464 0.00171799 0.5
0.0612926 0.0575464 -0.00171799 0.5
0.0612926 0.0575464 0.0025 0.5
0.0612926 0.0575464 -0.0025 0.5
0.0841772 0.0002775 0.0025 0.5
0.0841772 0.0002775 -0.0025 0.5
0.0613628 0.05772 0.0025 0.5
0.0613628 0.05772 -0.0025 0.5
0.0612609 0.057862 0.00186041 0.5
0.0612609 0.057862 -0.00186041 0.5
0.0612609 0.057862 0.0025 0.5
0.0612609 0.057862 -0.0025 0.5
0.084455 0.000555 -0.0025 0.5
0.084455 0.000555 0.0025 0.5
0.0612412 0.058275 3.82601e-18 0.5
0.0847328 0.0002775 0.0025 0.5
0.0847328 0.0002775 -0.0025 0.5
0.0612188 0.05873 -0.00204971 0.5
0.0612188 0.05873 0.00204971 0.5
0.0612188 0.05873 -0.0025 0.5
0.0612188 0.05873 0.0025 0.5
0.0612017 0.0589129 -0.00212674 0.5
0.0612017 0.0589129 0.00212674 0.5
0.0612747 0.05883 -0.0025 0.5
0.0612747 0.05883 0.0025 0.5
0.0612017 0.0589129 -0.0025 0.5
0.0612017 0.0589129 0.0025 0.5
0.0850106 0.0002775 0 0.5
0.0611806 0.059385 -1.22503e-18 0.5
0.0852884 0.0002775 0.0025 0.5
0.0852884 0.0002775 -0.0025 0.5
0.0855663 0.000555 -0.0025 0.5
0.0855663 0.000555 0.0025 0.5
0.0611568 0.059902 -0.00232898 0.5
0.0611568 0.059902 0.00232898 0.5
0.0611568 0.059902 0.0025 0.5
0.0611568 0.059902 -0.0025 0.5
0.0611506 0.0599718 -0.00235666 0.5
0.0611506 0.0599718 0.00235666 0.5
0.0611506 0.0599718 0.0025 0.5
0.0611506 0.0599718 -0.0025 0.5
0.061184 0.05994 0.0025 0.5
0.061184 0.05994 -0.0025 0.5
0.0858441 0.0002775 0.0025 0.5
0.0858441 0.0002775 -0.0025 0.5
0.0611285 0.060495 6.06329e-19 0.5
0.0861219 0.0002775 0 0.5
0.0611211 0.0610476 -0.00248923 0.5
0.0611211 0.0610476 0.00248923 0.5
0.0611211 0.0610476 0.0025 0.5
0.0611211 0.0610476 -0.0025 0.5
0.0611211 0.0610523 -0.0024896 0.5
0.0611211 0.0610523 0.0024896 0.5
0.0611211 0.0610523 0.0025 0.5
0.0611211 0.0610523 -0.0025 0.5
0.0611234 0.06105 -0.0025 0.5
0.0611234 0.06105 0.0025 0.5
0.0863997 0.0002775 0.0025 0.5
0.0863997 0.0002775 -0.0025 0.5
0.0611187 0.0612882 -0.0025 0.5
0.0611187 0.0612882 0.0025 0.5
0.0866775 0.000555 -0.0025 0.5
0.0866775 0.000555 0.0025 0.5
0.0611137 0.061605 -6.02565e-19 0.5
0.0869553 0.0002775 0.0025 0.5
0.0869553 0.0002775 -0.0025 0.5
0.0611102 0.0621515 -0.00246169 0.5
0.0611102 0.0621515 0.00246169 0.5
0.0611102 0.0621515 0.0025 0.5
0.0611102 0.0621515 -0.0025 0.5
0.0611018 0.06216 0.0025 0.5
0.0611018 0.06216 -0.0025 0.5
0.06111 0.0621687 0.00246068 0.5
0.06111 0.0621687 -0.00246068 0.5
0.06111 0.0621687 0.0025 0.5
0.06111 0.0621687 -0.0025 0.5
0.0872331 0.0002775 0 0.5
0.0875109 0.0002775 0.0025 0.5
0.0875109 0.0002775 -0.0025 0.5
0.0611065 0.062715 6.23316e-20 0.5
0.0877888 0.000555 -0.0025 0.5
0.0877888 0.000555 0.0025 0.5
0.0611035 0.0632548 -0.00243151 0.5
0.0611035 0.0632548 0.00243151 0.5
0.0611035 0.0632548 0.0025 0.5
0.0611035 0.0632548 -0.0025 0.5
0.0610888 0.06327 -0.0025 0.5
0.0610888 0.06327 0.0025 0.5
0.0611032 0.0632855 0.00243 0.5
0.0611032 0.0632855 -0.00243 0.5
0.0611032 0.0632855 0.0025 0.5
0.0611032 0.0632855 -0.0025 0.5
0.0880666 0.0002775 -0.00125 0.5
0.0880666 0.0002775 0.00125 0.5
0.0880666 0.0002775 0.0025 0.5
0.0880666 0.0002775 -0.0025 0.5
0.0883444 0.0002775 0 0.5
0.0611002 0.063825 -1.24325e-19 0.5
0.0883444 0.00111 0.0025 0.5
0.0883444 0.00111 -0.0025 0.5
0.0883444 0.00222 0.0025 0.5
0.0883444 0.00222 -0.0025 0.5
0.0883444 0.00333 0.0025 0.5
0.0883444 0.00333 -0.0025 0.5
0.0883444 0.00444 0.0025 0.5
0.0883444 0.00444 -0.0025 0.5
0.0883444 0.00555 0.0025 0.5
0.0883444 0.00555 -0.0025 0.5
0.0886222 0.000555 0 0.5
0.0883444 0.00666 0.0025 0.5
0.0883444 0.00666 -0.0025 0.5
0.0886222 0.0002775 -0.00125 0.5
0.0886222 0.0002775 0.00125 0.5
0.0886222 0.0008325 0.00125 0.5
0.0886222 0.0008325 -0.00125 0.5
0.0886222 0.001665 0 0.5
0.0886222 0.0002775 0.0025 0.5
0.0886222 0.0002775 -0.0025 0.5
0.0886222 0.0008325 0.0025 0.5
0.0886222 0.0008325 -0.0025 0.5
0.0886222 0.002775 0 0.5
0.0886222 0.0013875 0.0025 0.5
0.0886222 0.0013875 -0.0025 0.5
0.0886222 0.0019425 0.0025 0.5
0.0886222 0.0019425 -0.0025 0.5
0.0886222 0.0024975 0.0025 0.5
0.0886222 0.0024975 -0.0025 0.5
0.0886222 0.003885 0 0.5
0.0886222 0.0030525 0.0025 0.5
0.0886222 0.0030525 -0.0025 0.5
0.0883444 0.00777 0.0025 0.5
0.0883444 0.00777 -0.0025 0.5
0.0886222 0.0036075 0.0025 0.5
0.0886222 0.0036075 -0.0025 0.5
0.0886222 0.0041625 0.0025 0.5
0.0886222 0.0041625 -0.0025 0.5
0.0886222 0.004995 -1.81603e-19 0.5
0.0610995 0.0643607 -0.0024132 0.5
0.0610995 0.0643607 0.0024132 0.5
0.0610995 0.0643607 0.0025 0.5
0.0610995 0.0643607 -0.0025 0.5
0.0610814 0.06438 0.0025 0.5
0.0610814 0.06438 -0.0025 0.5
0.0886222 0.0047175 0.0025 0.5
0.0886222 0.0047175 -0.0025 0.5
0.0610993 0.0643994 0.0024127 0.5
0.0610993 0.0643994 -0.0024127 0.5
0.0610993 0.0643994 0.0025 0.5
0.0610993 0.0643994 -0.0025 0.5
0.0886222 0.0052725 0.0025 0.5
0.0886222 0.0052725 -0.0025 0.5
0.0883444 0.00888 0.0025 0.5
0.0883444 0.00888 -0.0025 0.5
0.0886222 0.006105 -4.31797e-21 0.5
0.0886222 0.0058275 0.0025 0.5
0.0886222 0.0058275 -0.0025 0.5
0.0886222 0.0063825 0.0025 0.5
0.0886222 0.0063825 -0.0025 0.5
0.0886222 0.007215 3.76366e-21 0.5
0.0886222 0.0069375 -0.0025 0.5
0.0886222 0.0069375 0.0025 0.5
0.0883444 0.00999 0.0025 0.5
0.0883444 0.00999 -0.0025 0.5
0.0886222 0.0074925 -0.0025 0.5
0.0886222 0.0074925 0.0025 0.5
0.0886222 0.008325 1.10296e-21 0.5
0.0886222 0.0080475 -0.0025 0.5
0.0886222 0.0080475 0.0025 0.5
0.0886222 0.0086025 -0.0025 0.5
0.0886222 0.0086025 0.0025 0.5
0.0883444 0.0111 0.0025 0.5
0.0883444 0.0111 -0.0025 0.5
0.0886222 0.009435 1.92878e-21 0.5
0.0886222 0.0091575 0.0025 0.5
0.0886222 0.0091575 -0.0025 0.5
0.0610986 0.064935 -1.47307e-19 0.5
0.0886222 0.0097125 0.0025 0.5
0.0886222 0.0097125 -0.0025 0.5
0.0883444 0.01221 0.0025 0.5
0.0883444 0.01221 -0.0025 0.5
0.0886222 0.010545 3.88923e-21 0.5
0.0886222 0.0102675 0.0025 0.5
0.0886222 0.0102675 -0.0025 0.5
0.0886222 0.0108225 0.0025 0.5
0.0886222 0.0108225 -0.0025 0.5
0.0883444 0.01332 0.0025 0.5
0.0883444 0.01332 -0.0025 0.5
0.0886222 0.0113775 0.0025 0.5
0.0886222 0.0113775 -0.0025 0.5
0.0886222 0.011655 2.78619e-21 0.5
0.0886222 0.0119325 0.0025 0.5
0.0886222 0.0119325 -0.0025 0.5
0.0886222 0.0124875 -0.0025 0.5
0.0886222 0.0124875 0.0025 0.5
0.0886222 0.012765 1.81655e-19 0.5
0.0883444 0.01443 0.0025 0.5
0.0883444 0.01443 -0.0025 0.5
0.0611017 0.065473 -0.00242347 0.5
0.0611017 0.065473 0.00242347 0.5
0.0611017 0.065473 -0.0025 0.5
0.0611017 0.065473 0.0025 0.5
0.0610861 0.06549 0.0025 0.5
0.0610861 0.06549 -0.0025 0.5
0.0886222 0.0130425 -0.0025 0.5
0.0886222 0.0130425 0.0025 0.5
0.0611021 0.0655066 0.00242524 0.5
0.0611021 0.0655066 -0.00242524 0.5
0.0611021 0.0655066 0.0025 0.5
0.0611021 0.0655066 -0.0025 0.5
0.0611187 0.0655217 -0.0025 0.5
0.0611187 0.0655217 0.0025 0.5
0.0886222 0.0135975 0.0025 0.5
0.0886222 0.0135975 -0.0025 0.5
0.0886222 0.013875 0 0.5
0.0883444 0.01554 0.0025 0.5
0.0883444 0.01554 -0.0025 0.5
0.0886222 0.0141525 0.0025 0.5
0.0886222 0.0141525 -0.0025 0.5
0.0886222 0.0147075 -0.0025 0.5
0.0886222 0.0147075 0.0025 0.5
0.0886222 0.014985 7.52748e-21 0.5
0.0883444 0.01665 0.0025 0.5
0.0883444 0.01665 -0.0025 0.5
0.0886222 0.0152625 -0.0025 0.5
0.0886222 0.0152625 0.0025 0.5
0.0611053 0.066045 -1.06725e-19 0.5
0.0886222 0.0158175 0.0025 0.5
0.0886222 0.0158175 -0.0025 0.5
0.0886222 0.016095 0 0.5
0.0883444 0.01776 0.0025 0.5
0.0883444 0.01776 -0.0025 0.5
0.0886222 0.0163725 0.0025 0.5
0.0886222 0.0163725 -0.0025 0.5
0.0886222 0.0169275 0.0025 0.5
0.0886222 0.0169275 -0.0025 0.5
0.0886222 0.017205 0 0.5
0.0886222 0.0174825 0.0025 0.5
0.0886222 0.0174825 -0.0025 0.5
0.0883444 0.01887 0.0025 0.5
0.0883444 0.01887 -0.0025 0.5
0.0613966 0.0663225 0.0025 0.5
0.0613966 0.0663225 -0.0025 0.5
0.0886222 0.0180375 0.0025 0.5
0.0886222 0.0180375 -0.0025 0.5
0.0886222 0.018315 -4.24739e-19 0.5
0.0616744 0.0663225 0 0.5
0.0886222 0.0185925 0.0025 0.5
0.0886222 0.0185925 -0.0025 0.5
0.0883444 0.01998 0.0025 0.5
0.0883444 0.01998 -0.0025 0.5
0.0886222 0.0191475 0.0025 0.5
0.0886222 0.0191475 -0.0025 0.5
0.0886222 0.019425 2.54579e-19 0.5
0.06223 0.066045 -0.0025 0.5
0.06223 0.066045 0.0025 0.5
0.0619522 0.0663225 0.0025 0.5
0.0619522 0.0663225 -0.0025 0.5
0.0886222 0.0197025 0.0025 0.5
0.0886222 0.0197025 -0.0025 0.5
0.0883444 0.02109 0.0025 0.5
0.0883444 0.02109 -0.0025 0.5
0.0886222 0.0202575 0.0025 0.5
0.0886222 0.0202575 -0.0025 0.5
0.0886222 0.020535 -4.2863e-21 0.5
0.0886222 0.0208125 0.0025 0.5
0.0886222 0.0208125 -0.0025 0.5
0.0883444 0.0222 0.0025 0.5
0.0883444 0.0222 -0.0025 0.5
0.0625078 0.0663225 0.0025 0.5
0.0625078 0.0663225 -0.0025 0.5
0.0886222 0.0213675 0.0025 0.5
0.0886222 0.0213675 -0.0025 0.5
0.0886222 0.021645 -2.44648e-21 0.5
0.0627856 0.0663225 0 0.5
0.0886222 0.0219225 0.0025 0.5
0.0886222 0.0219225 -0.0025 0.5
0.0883444 0.02331 0.0025 0.5
0.0883444 0.02331 -0.0025 0.5
0.0886222 0.0224775 0.0025 0.5
0.0886222 0.0224775 -0.0025 0.5
0.0886222 0.022755 -2.49561e-19 0.5
0.0633413 0.066045 -0.0025 0.5
0.0633413 0.066045 0.0025 0.5
0.0630634 0.0663225 0.0025 0.5
0.0630634 0.0663225 -0.0025 0.5
0.0886222 0.0230325 0.0025 0.5
0.0886222 0.0230325 -0.0025 0.5
0.0883444 0.02442 0.0025 0.5
0.0883444 0.02442 -0.0025 0.5
0.0886222 0.0235875 0.0025 0.5
0.0886222 0.0235875 -0.0025 0.5
0.0886222 0.023865 4.33092e-19 0.5
0.0886222 0.0241425 0.0025 0.5
0.0886222 0.0241425 -0.0025 0.5
0.0636191 0.0663225 0.0025 0.5
0.0636191 0.0663225 -0.0025 0.5
0.0883444 0.02553 0.0025 0.5
0.0883444 0.02553 -0.0025 0.5
0.0886222 0.0246975 -0.0025 0.5
0.0886222 0.0246975 0.0025 0.5
0.0886222 0.024975 1.19177e-21 0.5
0.0638969 0.0663225 0 0.5
0.0886222 0.0252525 0.0025 0.5
0.0886222 0.0252525 -0.0025 0.5