/*--------------------------------*- C++ -*----------------------------------*\
  =========                 |
  \\      /  F ield         | OpenFOAM: The Open Source CFD Toolbox
   \\    /   O peration     | Website:  https://openfoam.org
    \\  /    A nd           | Version:  6
     \\/     M anipulation  |
\*---------------------------------------------------------------------------*/
FoamFile
{
    version     2.0;
    format      ascii;
    class       volScalarField;
    location    "288";
    object      epsilon;
}
// * * * * * * * * * * * * * * * * * * * * * * * * * * * * * * * * * * * * * //

dimensions      [0 2 -3 0 0 0 0];

internalField   nonuniform List<scalar> 
12225
(
285.525
270.7
257.923
243.802
232.472
223.072
216.825
212.693
212.742
213.941
217.256
220.837
228.181
232.54
241.62
245.737
257.325
263.784
52.4932
91.8812
106.974
114.746
124.841
136.779
152.682
169.898
191.083
210.922
235.173
255.459
280.956
299.266
324.58
339.093
364.312
373.083
20.5286
34.8726
44.6748
50.4697
55.3937
59.6082
64.66
69.6444
76.3075
83.1837
91.4161
99.3128
108.137
116.913
125.483
135.202
142.464
153.542
16.0023
19.4865
24.081
27.5642
30.4954
32.8702
35.1531
37.2943
39.4992
41.9177
44.3313
47.199
49.6727
53.0292
55.3975
59.2103
61.3985
65.5925
15.0385
15.7125
17.3988
19.0788
20.6387
22.0263
23.2452
24.4313
25.4428
26.5943
27.5217
28.7563
29.6293
30.9811
31.8078
33.2556
34.0663
35.6279
14.7897
14.8257
15.2495
15.8677
16.5674
17.2871
17.9234
18.5841
19.1187
19.7336
20.1926
20.798
21.2073
21.8206
22.1959
22.8214
23.1743
23.8507
14.7657
14.6146
14.6409
14.7258
14.935
15.22
15.4915
15.8088
16.0708
16.3824
16.6178
16.9197
17.1303
17.4261
17.6148
17.9103
18.0792
18.4028
14.7687
14.5866
14.466
14.3801
14.3677
14.3896
14.4394
14.5334
14.6184
14.7365
14.8307
14.9562
15.0475
15.1757
15.2605
15.3909
15.4688
15.618
14.768
14.591
14.4349
14.2963
14.185
14.1044
14.0399
14.0066
13.9814
13.9785
13.9808
13.9916
14.004
14.0294
14.0469
14.0791
14.1027
14.1449
14.7665
14.594
14.432
14.282
14.143
14.0219
13.9115
13.8194
13.737
13.6698
13.6102
13.5633
13.5181
13.4871
13.4516
13.4341
13.402
13.4005
14.7659
14.5945
14.4322
14.2803
14.1362
14.0032
13.8782
13.7644
13.6582
13.5629
13.4736
13.3952
13.3198
13.2561
13.1916
13.1408
13.0838
13.0451
14.7657
14.5943
14.4321
14.2798
14.1353
13.9999
13.8715
13.7518
13.6385
13.5337
13.4341
13.343
13.2557
13.1771
13.1003
13.0328
12.9647
12.9074
14.7657
14.5941
14.432
14.2794
14.1349
13.9989
13.8699
13.7485
13.6332
13.525
13.422
13.3257
13.2338
13.1484
13.0663
12.9906
12.9172
12.8502
14.7657
14.5939
14.4318
14.279
14.1346
13.9983
13.8692
13.7472
13.6315
13.5223
13.4184
13.3204
13.227
13.139
13.055
12.9759
12.9002
12.8291
14.7657
14.5938
14.4317
14.2787
14.1342
13.9977
13.8686
13.7464
13.6307
13.5211
13.4171
13.3185
13.2249
13.136
13.0516
12.9714
12.8951
12.8227
14.7657
14.5937
14.4315
14.2785
14.1339
13.9973
13.8681
13.7458
13.63
13.5202
13.4161
13.3174
13.2236
13.1346
13.05
12.9696
12.8931
12.8204
14.7657
14.5937
14.4315
14.2783
14.1337
13.997
13.8677
13.7453
13.6294
13.5195
13.4154
13.3165
13.2227
13.1336
13.0489
12.9684
12.8918
12.819
14.7657
14.5937
14.4314
14.2782
14.1335
13.9968
13.8674
13.7449
13.629
13.5191
13.4148
13.3159
13.222
13.1328
13.0481
12.9675
12.8908
12.8179
14.7657
14.5937
14.4314
14.2782
14.1335
13.9967
13.8673
13.7448
13.6288
13.5189
13.4146
13.3156
13.2217
13.1325
13.0477
12.967
12.8903
12.8174
14.7657
14.5937
14.4314
14.2782
14.1336
13.9968
13.8674
13.745
13.629
13.519
13.4148
13.3158
13.2219
13.1327
13.0479
12.9673
12.8906
12.8177
14.7657
14.5937
14.4315
14.2784
14.1337
13.997
13.8677
13.7453
13.6294
13.5195
13.4154
13.3166
13.2229
13.1338
13.0493
12.9689
12.8926
12.8199
14.7657
14.5937
14.4316
14.2785
14.1341
13.9974
13.8685
13.7464
13.6312
13.522
13.419
13.3213
13.2293
13.1418
13.0594
12.981
12.9073
12.8368
14.7659
14.5937
14.4318
14.2788
14.1353
14.0002
13.8742
13.756
13.6463
13.5435
13.4485
13.3591
13.277
13.1992
13.1282
13.0601
12.9988
12.9386
14.7661
14.5928
14.4329
14.2844
14.1515
14.0321
13.9289
13.8375
13.7593
13.6893
13.6306
13.5769
13.5327
13.4905
13.4574
13.423
13.3989
13.3693
14.7641
14.5936
14.461
14.3603
14.3029
14.2767
14.2796
14.294
14.3202
14.3529
14.3959
14.4346
14.4825
14.5217
14.572
14.609
14.6617
14.694
14.757
14.6921
14.758
14.9172
15.1828
15.4611
15.7475
16.0121
16.2724
16.5039
16.7362
16.9387
17.1508
17.3311
17.5311
17.6938
17.8891
18.0362
14.9575
15.4344
16.5693
17.6884
18.7053
19.5678
20.3373
20.997
21.6196
22.1663
22.7191
23.2111
23.7403
24.2048
24.7333
25.1833
25.7257
26.1668
16.2579
20.9389
25.015
27.7588
29.7845
31.3586
32.7769
34.0587
35.3597
36.6169
37.9762
39.2982
40.7628
42.1472
43.7196
45.1758
46.8862
48.3612
29.9428
47.2251
54.8706
58.6738
61.6143
64.4328
67.5805
70.9805
74.74
78.7167
82.9886
87.3487
91.9103
96.4565
101.107
105.631
110.184
114.586
165.79
160.073
154.899
149.564
144.479
139.678
135.613
132.11
129.27
126.974
125.32
124.045
123.34
122.83
122.826
122.983
123.271
123.828
0.154453
0.198812
0.372404
0.525315
0.670095
0.832612
1.02067
1.24465
1.51121
1.81956
2.16456
2.53787
2.93196
3.33928
3.75441
4.17197
4.58829
4.99938
5.40244
5.79429
6.17251
6.53465
6.87818
7.20114
7.50034
7.77355
8.01553
8.22195
8.38389
8.49471
8.54102
8.47876
8.26866
7.83799
8.09062
8.36691
8.64471
8.93687
9.09994
9.3522
40.4881
40.8868
41.7327
46.0287
48.5886
52.3748
55.7919
59.6653
63.5623
67.7043
71.9802
76.4502
81.0875
85.9105
90.9143
96.1064
101.487
107.062
112.831
118.799
124.966
131.336
137.909
144.688
151.67
158.859
166.252
173.851
181.651
189.653
197.853
206.249
214.835
223.61
232.566
241.7
251.002
260.469
270.091
279.861
289.768
299.805
309.959
320.222
330.578
341.018
351.525
362.088
372.687
383.308
393.93
404.529
415.082
425.564
435.947
446.21
456.341
466.36
476.349
486.153
495.837
505.356
514.712
523.88
532.85
541.604
550.127
558.405
566.423
574.167
581.623
588.778
595.619
602.135
608.312
614.141
619.61
624.712
629.437
633.778
637.726
641.276
644.418
647.15
649.466
651.367
652.843
653.887
654.564
654.862
654.662
654.001
652.889
651.465
649.699
647.458
644.851
641.858
638.494
634.771
630.697
626.286
621.553
616.503
611.148
605.503
599.582
593.397
586.965
580.298
573.414
566.326
559.05
551.602
543.998
536.253
528.383
520.405
512.337
504.199
496.024
487.876
480.18
475.306
472.108
469.023
465.914
462.767
459.586
456.378
453.146
449.891
446.608
443.279
439.872
436.304
432.418
427.768
421.467
396.387
0.795439
0.496934
0.503248
0.567829
0.667559
0.797183
0.958793
1.15486
1.38602
1.65047
1.94431
2.26285
2.60129
2.95547
3.32174
3.69731
4.07977
4.4675
4.8593
5.25468
5.65381
6.05736
6.46685
6.88375
7.31032
7.7472
8.19494
8.68745
9.23662
9.86866
10.6426
11.6644
12.9305
13.5841
15.4013
15.6091
18.0003
18.5913
19.9072
21.8258
24.9492
25.8997
27.4129
29.1303
30.7433
32.5132
34.2916
36.1647
38.0855
40.0809
42.1392
44.2687
46.4674
48.7382
51.0814
53.4984
55.9897
58.5565
61.1991
63.918
66.7137
69.5862
72.5357
75.5619
78.6647
81.8435
85.0978
88.4267
91.8291
95.3041
98.8501
102.466
106.149
109.897
113.71
117.583
121.514
125.501
129.54
133.629
137.762
141.937
146.149
150.394
154.667
158.963
163.277
167.602
171.933
176.262
180.582
184.886
189.166
193.416
197.631
201.814
205.974
210.138
214.365
218.521
222.629
226.676
230.659
234.57
238.404
242.155
245.818
249.385
252.852
256.212
259.462
262.594
265.605
268.489
271.242
273.858
276.335
278.667
280.852
282.886
284.766
286.488
288.05
289.449
290.685
291.754
292.657
293.393
293.968
294.374
294.593
294.634
294.506
294.236
293.813
293.21
292.453
291.536
290.465
289.243
287.873
286.359
284.706
282.916
280.995
278.948
276.778
274.492
272.094
269.59
266.986
264.288
261.5
258.63
255.683
252.665
249.583
246.443
243.252
240.019
236.756
233.49
230.34
227.728
225.488
223.319
221.156
218.987
216.812
214.633
212.454
210.277
208.105
205.938
203.777
201.625
199.465
197.358
195.264
191.791
1.70633
0.885835
0.798843
0.831814
0.915693
1.03814
1.19671
1.39086
1.61933
1.87944
2.16737
2.47897
2.81027
3.15803
3.51969
3.89351
4.27838
4.67391
5.08035
5.49875
5.93107
6.38012
6.84991
7.34533
7.87295
8.44051
9.05964
9.71881
10.4277
11.193
12.0164
12.8878
13.8204
14.7313
15.7311
16.6515
17.8011
18.8379
20.0613
21.4068
22.7884
24.0045
25.3309
26.7071
28.1141
29.5805
31.0947
32.6647
34.2863
35.9625
37.6929
39.4788
41.3205
43.2189
45.1744
47.1877
49.2591
51.3891
53.5781
55.8263
58.1339
60.5008
62.927
65.4125
67.9569
70.5598
73.2209
75.9395
78.7148
81.546
84.4321
87.3719
90.364
93.407
96.4991
99.6388
102.824
106.052
109.321
112.629
115.972
119.348
122.753
126.185
129.64
133.113
136.602
140.102
143.608
147.117
150.625
154.127
157.62
161.101
164.57
168.028
171.477
174.924
178.357
181.749
185.1
188.404
191.655
194.85
197.982
201.047
204.04
206.957
209.791
212.54
215.199
217.762
220.227
222.588
224.842
226.986
229.015
230.928
232.72
234.388
235.931
237.346
238.63
239.781
240.798
241.681
242.428
243.038
243.513
243.848
244.03
244.076
243.99
243.776
243.431
242.949
242.336
241.594
240.726
239.733
238.62
237.39
236.045
234.588
233.024
231.357
229.59
227.727
225.773
223.733
221.611
219.411
217.138
214.798
212.395
209.933
207.419
204.858
202.254
199.616
196.952
194.281
191.662
189.229
186.95
184.724
182.514
180.309
178.107
175.911
173.724
171.549
169.39
167.252
165.144
163.08
161.075
159.223
157.563
155.935
2.76318
1.32572
1.13582
1.13737
1.21376
1.33741
1.50031
1.6993
1.93194
2.19536
2.48608
2.80054
3.13543
3.4881
3.85665
4.23993
4.63749
5.04954
5.47696
5.92131
6.38492
6.87085
7.38299
7.92564
8.50356
9.12063
9.77966
10.4793
11.2196
11.9983
12.8134
13.6517
14.5059
15.3828
16.2906
17.235
18.243
19.2926
20.4118
21.5854
22.7931
24.0211
25.3004
26.6229
27.987
29.3982
30.8571
32.3654
33.9234
35.5322
37.1925
38.9051
40.6706
42.4898
44.3632
46.2914
48.2749
50.314
52.4094
54.5613
56.7701
59.0359
61.3589
63.7391
66.1765
68.671
71.2223
73.83
76.4936
79.2124
81.9857
84.8126
87.6919
90.6225
93.6028
96.6313
99.7063
102.826
105.987
109.189
112.429
115.703
119.009
122.344
125.704
129.087
132.488
135.905
139.332
142.767
146.207
149.646
153.083
156.515
159.939
163.354
166.759
170.148
173.511
176.837
180.122
183.361
186.549
189.679
192.748
195.75
198.68
201.534
204.306
206.992
209.587
212.087
214.487
216.785
218.975
221.054
223.019
224.867
226.593
228.197
229.675
231.024
232.243
233.33
234.283
235.102
235.785
236.333
236.745
237.013
237.128
237.127
236.987
236.716
236.314
235.779
235.115
234.324
233.409
232.372
231.217
229.946
228.564
227.073
225.478
223.783
221.991
220.107
218.135
216.08
213.947
211.739
209.463
207.123
204.723
202.269
199.765
197.218
194.632
192.014
189.373
186.723
184.099
181.559
179.099
176.679
174.278
171.887
169.507
167.14
164.788
162.457
160.151
157.877
155.644
153.472
151.39
149.486
147.806
146.339
3.83471
1.78
1.48171
1.45132
1.51695
1.63883
1.80346
2.00515
2.24041
2.50611
2.79908
3.11617
3.45456
3.81197
4.18681
4.57813
4.98567
5.40969
5.85104
6.31105
6.79162
7.29508
7.82436
8.38251
8.97278
9.59767
10.2589
10.956
11.6875
12.4494
13.2364
14.0501
14.8967
15.7704
16.6741
17.6205
18.6198
19.6691
20.7705
21.9188
23.1088
24.3396
25.6159
26.9372
28.3034
29.7165
31.1776
32.6882
34.2492
35.8617
37.5265
39.2448
41.0173
42.8451
44.7294
46.6703
48.6687
50.7252
52.8406
55.0153
57.2501
59.5453
61.9015
64.3188
66.7977
69.3382
71.9402
74.6038
77.3285
80.1141
82.9599
85.8652
88.8291
91.8505
94.9282
98.0605
101.246
104.482
107.768
111.1
114.477
117.895
121.351
124.843
128.366
131.918
135.495
139.092
142.707
146.334
149.971
153.613
157.255
160.895
164.527
168.148
171.75
175.33
178.878
182.388
185.855
189.272
192.635
195.936
199.17
202.333
205.417
208.419
211.332
214.152
216.873
219.492
222.002
224.4
226.682
228.843
230.881
232.79
234.57
236.215
237.725
239.095
240.325
241.413
242.356
243.155
243.808
244.315
244.675
244.874
244.93
244.85
244.624
244.257
243.749
243.101
242.317
241.398
240.349
239.171
237.869
236.447
234.908
233.256
231.496
229.631
227.668
225.609
223.461
221.228
218.916
216.529
214.073
211.552
208.973
206.34
203.659
200.936
198.176
195.386
192.574
189.752
186.943
184.176
181.455
178.765
176.095
173.441
170.804
168.186
165.592
163.025
160.494
158.006
155.575
153.224
150.985
148.935
147.109
145.468
4.86231
2.22306
1.81721
1.75432
1.80706
1.92456
2.08811
2.28967
2.52472
2.78986
3.08206
3.39851
3.73673
4.09472
4.47106
4.86492
5.27603
5.70457
6.15123
6.61702
7.10337
7.61198
8.14495
8.70442
9.29279
9.91206
10.5639
11.2492
11.968
12.7193
13.5016
14.3146
15.1588
16.0417
16.9684
17.9389
18.9517
20.0097
21.1146
22.2653
23.4613
24.703
25.9917
27.328
28.7125
30.1465
31.6312
33.1681
34.7583
36.4032
38.1038
39.8615
41.6773
43.5524
45.4875
47.4843
49.5439
51.6674
53.8558
56.1102
58.4314
60.8204
63.2778
65.8043
68.4006
71.067
73.8037
76.611
79.4888
82.4369
85.455
88.5423
91.6981
94.9214
98.2109
101.565
104.982
108.46
111.997
115.589
119.235
122.932
126.675
130.462
134.288
138.15
142.044
145.965
149.908
153.869
157.843
161.826
165.811
169.794
173.768
177.729
181.668
185.58
189.456
193.291
197.078
200.809
204.479
208.08
211.608
215.054
218.413
221.679
224.845
227.906
230.857
233.692
236.405
238.992
241.448
243.769
245.95
247.989
249.881
251.624
253.213
254.648
255.926
257.045
258.004
258.801
259.437
259.911
260.216
260.347
260.331
260.156
259.821
259.331
258.685
257.888
256.941
255.848
254.612
253.238
251.729
250.091
248.326
246.441
244.44
242.328
240.111
237.794
235.383
232.882
230.299
227.639
224.907
222.109
219.252
216.341
213.383
210.382
207.347
204.283
201.198
198.102
195.012
191.946
188.91
185.9
182.911
179.943
176.998
174.079
171.191
168.339
165.532
162.78
160.099
157.511
155.051
152.783
150.726
148.789
5.80742
2.63744
2.12854
2.0329
2.07102
2.18179
2.34158
2.54016
2.772
3.03339
3.32135
3.63329
3.96704
4.32082
4.69339
5.08401
5.49244
5.91885
6.36386
6.82833
7.31349
7.82073
8.35176
8.9083
9.49231
10.1056
10.75
11.4269
12.1375
12.8824
13.6623
14.4779
15.3307
16.2234
17.1581
18.1361
19.1581
20.2256
21.3396
22.5008
23.7099
24.9677
26.2755
27.6343
29.0452
30.5095
32.0287
33.6043
35.2379
36.931
38.6852
40.5019
42.3829
44.3295
46.3433
48.426
50.579
52.8041
55.1025
57.4758
59.9251
62.4519
65.0572
67.7421
70.5075
73.3541
76.2826
79.2933
82.3865
85.5621
88.82
92.1595
95.5801
99.0806
102.66
106.316
110.047
113.852
117.726
121.669
125.676
129.743
133.868
138.046
142.273
146.543
150.853
155.197
159.569
163.964
168.376
172.799
177.227
181.652
186.068
190.467
194.842
199.184
203.487
207.743
211.943
216.08
220.148
224.137
228.041
231.853
235.565
239.17
242.662
246.034
249.279
252.391
255.364
258.194
260.874
263.4
265.767
267.972
270.01
271.878
273.573
275.092
276.433
277.595
278.577
279.376
279.994
280.429
280.668
280.73
280.618
280.327
279.86
279.218
278.405
277.424
276.277
274.969
273.505
271.889
270.125
268.22
266.178
264.005
261.706
259.289
256.758
254.121
251.383
248.551
245.632
242.632
239.558
236.417
233.214
229.957
226.653
223.308
219.928
216.522
213.096
209.66
206.226
202.808
199.413
196.042
192.694
189.373
186.08
182.82
179.599
176.424
173.304
170.249
167.278
164.413
161.686
159.152
156.811
154.53
6.6426
3.00985
2.40541
2.27741
2.29961
2.40156
2.55515
2.74811
2.97399
3.22871
3.50928
3.8133
4.13883
4.48433
4.84875
5.23146
5.63232
6.05155
6.48978
6.9479
7.42711
7.92873
8.45431
9.00544
9.58352
10.1905
10.8283
11.4986
12.2029
12.9427
13.7192
14.534
15.3883
16.2841
17.2227
18.2057
19.2343
20.31
21.434
22.6075
23.8318
25.1082
26.4383
27.8234
29.2651
30.7652
32.3253
33.9475
35.6337
37.3857
39.2057
41.0955
43.0571
45.0927
47.2042
49.3937
51.6632
54.0148
56.4504
58.9718
61.581
64.2795
67.0691
69.951
72.9268
75.9974
79.1638
82.4267
85.7865
89.2434
92.7973
96.4478
100.194
104.035
107.97
111.996
116.111
120.314
124.6
128.968
133.412
137.929
142.515
147.164
151.872
156.633
161.441
166.29
171.173
176.084
181.016
185.96
190.91
195.856
200.792
205.708
210.595
215.445
220.249
224.997
229.681
234.293
238.823
243.263
247.605
251.84
255.96
259.957
263.822
267.55
271.131
274.56
277.829
280.934
283.867
286.623
289.198
291.587
293.785
295.79
297.598
299.207
300.613
301.816
302.815
303.608
304.197
304.575
304.738
304.707
304.475
304.043
303.414
302.591
301.578
300.377
298.993
297.432
295.698
293.797
291.735
289.517
287.151
284.642
281.997
279.224
276.329
273.32
270.204
266.989
263.682
260.29
256.821
253.282
249.682
246.026
242.324
238.581
234.806
231.005
227.188
223.361
219.537
215.726
211.935
208.168
204.429
200.721
197.048
193.416
189.831
186.302
182.837
179.449
176.156
172.98
169.951
167.114
164.453
161.807
7.35095
3.33156
2.64128
2.48198
2.48738
2.57873
2.72399
2.90906
3.12662
3.37225
3.64293
3.93638
4.25087
4.58508
4.93816
5.30967
5.69953
6.10786
6.53548
6.98345
7.45305
7.94565
8.46285
9.0064
9.57809
10.179
10.8109
11.4753
12.174
12.9088
13.6811
14.4926
15.345
16.2399
17.1789
18.1636
19.1957
20.2768
21.4086
22.593
23.8321
25.1288
26.484
27.8992
29.3756
30.9159
32.5228
34.1986
35.9457
37.7666
39.6637
41.6395
43.6966
45.8376
48.065
50.3814
52.7896
55.2919
57.8909
60.5891
63.3887
66.2921
69.3012
72.4181
75.6443
78.9814
82.4306
85.9928
89.6688
93.4588
97.3628
101.38
105.511
109.753
114.105
118.565
123.13
127.798
132.565
137.426
142.378
147.416
152.535
157.728
162.989
168.313
173.691
179.117
184.582
190.079
195.599
201.133
206.672
212.206
217.726
223.221
228.682
234.098
239.459
244.754
249.975
255.111
260.151
265.087
269.908
274.604
279.167
283.588
287.857
291.966
295.907
299.673
303.256
306.648
309.845
312.84
315.627
318.202
320.56
322.698
324.612
326.299
327.759
328.988
329.986
330.753
331.29
331.586
331.653
331.496
331.113
330.508
329.684
328.645
327.394
325.936
324.276
322.421
320.376
318.148
315.744
313.17
310.435
307.546
304.51
301.336
298.032
294.606
291.067
287.423
283.682
279.853
275.945
271.966
267.924
263.827
259.683
255.502
251.289
247.054
242.804
238.549
234.297
230.059
225.842
221.652
217.494
213.373
209.294
205.264
201.291
197.381
193.547
189.801
186.16
182.647
179.287
176.119
173.111
170.09
7.92343
3.59796
2.83331
2.64346
2.63246
2.71174
2.84687
3.02216
3.2295
3.46417
3.72309
4.00409
4.30559
4.6263
4.96577
5.32404
5.70162
6.09963
6.51778
6.9567
7.41748
7.90141
8.40995
8.94452
9.50645
10.0976
10.7197
11.3748
12.0647
12.7912
13.5564
14.3619
15.2096
16.1016
17.0396
18.0257
19.0618
20.15
21.2924
22.4911
23.7482
25.0655
26.4457
27.8918
29.4073
30.994
32.655
34.3934
36.2121
38.1141
40.1025
42.1802
44.3505
46.6166
48.9817
51.449
54.0217
56.7031
59.4962
62.404
65.4295
68.5754
71.8442
75.2384
78.76
82.4108
86.1924
90.1059
94.152
98.3312
102.643
107.088
111.664
116.37
121.205
126.164
131.246
136.446
141.761
147.186
152.714
158.342
164.061
169.866
175.749
181.701
187.715
193.781
199.891
206.034
212.202
218.382
224.565
230.739
236.893
243.016
249.096
255.121
261.08
266.96
272.752
278.442
284.021
289.476
294.798
299.975
304.997
309.853
314.535
319.033
323.337
327.439
331.333
335.009
338.461
341.683
344.669
347.414
349.913
352.164
354.161
355.903
357.388
358.614
359.582
360.291
360.739
360.925
360.857
360.535
359.963
359.146
358.087
356.79
355.259
353.502
351.524
349.332
346.933
344.335
341.546
338.574
335.427
332.115
328.646
325.029
321.274
317.391
313.388
309.276
305.063
300.759
296.374
291.917
287.398
282.824
278.205
273.55
268.868
264.166
259.454
254.739
250.031
245.34
240.673
236.038
231.44
226.886
222.381
217.934
213.552
209.244
205.021
200.897
196.889
193.017
189.305
185.783
182.412
179.01
8.35875
3.80745
2.98085
2.76247
2.73542
2.80173
2.92539
3.08941
3.28511
3.50745
3.75316
4.02059
4.30884
4.61786
4.94634
5.29362
5.65965
6.04428
6.44819
6.87281
7.31947
7.78949
8.28431
8.80542
9.35453
9.93364
10.5447
11.1895
11.8699
12.5879
13.3456
14.1451
14.9885
15.8782
16.8162
17.8052
18.8473
19.9452
21.1014
22.3186
23.5995
24.9471
26.3644
27.8548
29.4196
31.0627
32.7895
34.6046
36.5112
38.5129
40.6132
42.8158
45.1246
47.5435
50.0763
52.727
55.4995
58.3977
61.4252
64.5857
67.8826
71.3192
74.8986
78.6234
82.4961
86.5187
90.6928
95.0198
99.5003
104.135
108.922
113.863
118.954
124.195
129.583
135.113
140.783
146.587
152.521
158.579
164.754
171.039
177.426
183.907
190.473
197.114
203.822
210.584
217.391
224.231
231.093
237.963
244.83
251.682
258.504
265.285
272.01
278.668
285.243
291.725
298.099
304.354
310.476
316.453
322.274
327.927
333.399
338.68
343.761
348.629
353.276
357.693
361.871
365.803
369.48
372.898
376.048
378.928
381.531
383.854
385.894
387.648
389.116
390.296
391.187
391.791
392.107
392.137
391.885
391.351
390.542
389.465
388.123
386.52
384.664
382.561
380.218
377.644
374.846
371.834
368.617
365.204
361.604
357.828
353.886
349.789
345.546
341.168
336.667
332.052
327.334
322.523
317.631
312.667
307.64
302.562
297.441
292.288
287.11
281.918
276.72
271.524
266.341
261.178
256.044
250.948
245.896
240.894
235.951
231.073
226.269
221.55
216.926
212.41
208.02
203.775
199.695
195.805
192.061
188.28
8.66243
3.96154
3.08568
2.84188
2.79916
2.85199
2.96321
3.11479
3.29794
3.50805
3.74298
3.99956
4.27604
4.57085
4.88359
5.21466
5.56438
5.93331
6.32278
6.73353
7.16667
7.6235
8.10551
8.61431
9.15169
9.71957
10.3199
10.9549
11.6265
12.3371
13.0891
13.8848
14.7269
15.6178
16.5605
17.5577
18.6124
19.7277
20.9066
22.1524
23.4688
24.8597
26.3276
27.8747
29.5044
31.225
33.0406
34.9562
36.9779
39.1092
41.3542
43.7175
46.2036
48.8171
51.5626
54.4449
57.4685
60.6378
63.9572
67.4308
71.0626
74.8563
78.815
82.9419
87.2394
91.7095
96.3539
101.174
106.169
111.34
116.685
122.204
127.893
133.75
139.772
145.954
152.29
158.775
165.403
172.166
179.056
186.064
193.181
200.398
207.703
215.085
222.533
230.035
237.577
245.147
252.732
260.317
267.889
275.433
282.934
290.378
297.751
305.038
312.224
319.294
326.236
333.035
339.677
346.148
352.437
358.53
364.416
370.081
375.516
380.71
385.651
390.332
394.742
398.875
402.722
406.277
409.534
412.488
415.135
417.47
419.491
421.197
422.585
423.656
424.41
424.849
424.973
424.789
424.291
423.485
422.383
420.989
419.309
417.348
415.113
412.613
409.856
406.852
403.609
400.138
396.45
392.554
388.462
384.185
379.734
375.121
370.357
365.455
360.424
355.279
350.029
344.687
339.263
333.769
328.215
322.613
316.972
311.302
305.613
299.915
294.217
288.528
282.857
277.212
271.603
266.038
260.524
255.069
249.68
244.366
239.135
233.998
228.966
224.053
219.273
214.647
210.19
205.925
201.804
197.649
8.84666
4.0648
3.15155
2.88572
2.82802
2.86717
2.96615
3.10731
3.28035
3.47935
3.70016
3.94124
4.20167
4.48089
4.77903
5.0959
5.4318
5.78732
6.1634
6.56102
6.98143
7.42601
7.89635
8.39421
8.9215
9.4803
10.0728
10.7013
11.3683
12.0764
12.8285
13.6275
14.4763
15.378
16.3359
17.3536
18.435
19.584
20.8038
22.0979
23.4693
24.9188
26.4549
28.0845
29.8143
31.6491
33.5942
35.6554
37.8388
40.1498
42.5935
45.1752
47.9004
50.7745
53.8029
56.9908
60.3434
63.8656
67.5621
71.4376
75.4961
79.7413
84.1767
88.8048
93.6281
98.6482
103.866
109.282
114.895
120.705
126.71
132.907
139.292
145.861
152.609
159.531
166.618
173.865
181.262
188.8
196.47
204.261
212.161
220.16
228.245
236.402
244.619
252.88
261.173
269.481
277.791
286.086
294.351
302.571
310.728
318.808
326.794
334.67
342.422
350.033
357.488
364.772
371.872
378.772
385.46
391.922
398.145
404.118
409.828
415.264
420.417
425.277
429.834
434.082
438.012
441.618
444.894
447.836
450.44
452.701
454.619
456.192
457.419
458.301
458.839
459.034
458.895
458.419
457.599
456.456
454.993
453.219
451.138
448.758
446.087
443.136
439.913
436.429
432.694
428.721
424.519
420.102
415.481
410.669
405.677
400.519
395.207
389.754
384.173
378.475
372.675
366.784
360.814
354.776
348.684
342.547
336.376
330.183
323.977
317.768
311.565
305.379
299.218
293.091
287.006
280.973
274.999
269.091
263.259
257.511
251.855
246.302
240.863
235.552
230.384
225.375
220.54
215.901
211.406
206.887
8.90575
4.11685
3.18088
2.89767
2.8275
2.85669
2.94547
3.07398
3.23285
3.41713
3.62399
3.85169
4.09902
4.36537
4.65062
4.95488
5.27858
5.62239
5.98727
6.37434
6.78497
7.22072
7.68339
8.17496
8.69767
9.25389
9.84609
10.477
11.1494
11.8666
12.6321
13.4499
14.3234
15.2559
16.2511
17.3129
18.4439
19.6463
20.9277
22.2943
23.7521
25.3088
26.9695
28.7408
30.6297
32.6423
34.7854
37.066
39.4909
42.0659
44.7978
47.6931
50.7584
53.9996
57.4226
61.033
64.8361
68.837
73.0403
77.4503
82.0709
86.9052
91.956
97.225
102.714
108.422
114.351
120.498
126.861
133.439
140.226
147.22
154.413
161.8
169.374
177.127
185.049
193.132
201.365
209.736
218.234
226.847
235.561
244.362
253.237
262.171
271.148
280.153
289.17
298.183
307.175
316.13
325.03
333.86
342.601
351.238
359.752
368.128
376.349
384.4
392.264
399.926
407.371
414.585
421.554
428.264
434.704
440.86
446.721
452.276
457.515
462.429
467.009
471.248
475.138
478.674
481.851
484.663
487.108
489.184
490.888
492.221
493.182
493.774
493.997
493.861
493.366
492.499
491.28
489.718
487.82
485.593
483.042
480.179
477.012
473.551
469.809
465.796
461.524
457.005
452.253
447.279
442.097
436.721
431.163
425.438
419.559
413.539
407.393
401.133
394.773
388.326
381.805
375.221
368.588
361.917
355.22
348.506
341.787
335.073
328.374
321.698
315.056
308.455
301.906
295.415
288.992
282.644
276.38
270.208
264.138
258.179
252.344
246.644
241.094
235.71
230.504
225.497
220.638
215.774
8.88729
4.12686
3.18053
2.88786
2.80805
2.82436
2.89964
3.01541
3.16228
3.33488
3.53021
3.7465
3.98276
4.23852
4.51374
4.80871
5.12404
5.46061
5.81954
6.20216
6.61004
7.04506
7.50933
8.00535
8.53612
9.10482
9.71394
10.3667
11.0665
11.8168
12.6208
13.4802
14.4005
15.3879
16.448
17.5867
18.8103
20.1259
21.5389
23.0562
24.6854
26.4346
28.3111
30.3225
32.4764
34.7807
37.243
39.8713
42.6733
45.6564
48.8286
52.1978
55.7715
59.5556
63.5554
67.7758
72.2214
76.8964
81.8042
86.9479
92.3299
97.9516
103.814
109.916
116.258
122.838
129.652
136.698
143.97
151.464
159.172
167.089
175.205
183.513
192.001
200.661
209.48
218.447
227.549
236.773
246.106
255.532
265.039
274.609
284.227
293.878
303.545
313.212
322.861
332.475
342.037
351.53
360.937
370.24
379.421
388.464
397.351
406.065
414.591
422.912
431.013
438.878
446.492
453.841
460.912
467.692
474.169
480.33
486.165
491.663
496.815
501.612
506.046
510.11
513.799
517.106
520.028
522.561
524.702
526.45
527.804
528.767
529.332
529.514
529.317
528.734
527.76
526.414
524.702
522.633
520.216
517.457
514.365
510.951
507.226
503.2
498.887
494.298
489.446
484.346
479.01
473.451
467.685
461.725
455.586
449.281
442.826
436.234
429.521
422.699
415.783
408.786
401.722
394.603
387.442
380.251
373.041
365.824
358.61
351.41
344.233
337.089
329.987
322.935
315.942
309.017
302.167
295.401
288.727
282.153
275.689
269.345
263.132
257.061
251.147
245.404
239.842
234.484
229.276
224.089
8.82878
4.11696
3.16408
2.85869
2.76661
2.77198
2.83686
2.9425
3.07951
3.2428
3.42955
3.63815
3.86778
4.11816
4.38948
4.68232
4.99774
5.33746
5.70286
6.09541
6.51714
6.97039
7.4577
7.98157
8.54391
9.14666
9.79578
10.4963
11.2532
12.0717
12.9576
13.9178
14.9582
16.0852
17.3059
18.6282
20.0606
21.6118
23.2902
25.1046
27.0642
29.1785
31.4565
33.9075
36.5405
39.3642
42.3868
45.6155
49.0566
52.7203
56.6155
60.7517
65.1405
69.7831
74.6809
79.8355
85.2485
90.9211
96.8536
103.046
109.496
116.202
123.161
130.369
137.822
145.513
153.436
161.584
169.949
178.522
187.293
196.252
205.389
214.691
224.147
233.743
243.468
253.306
263.245
273.268
283.362
293.512
303.7
313.912
324.132
334.343
344.528
354.672
364.756
374.764
384.679
394.484
404.162
413.696
423.069
432.266
441.268
450.062
458.629
466.956
475.028
482.829
490.347
497.567
504.478
511.068
517.324
523.236
528.794
533.989
538.812
543.256
547.313
550.978
554.246
557.113
559.574
561.628
563.272
564.509
565.333
565.759
565.76
565.404
564.614
563.431
561.861
559.911
557.589
554.904
551.865
548.48
544.758
540.713
536.355
531.697
526.752
521.533
516.055
510.33
504.374
498.201
491.825
485.262
478.525
471.631
464.593
457.427
450.148
442.769
435.305
427.77
420.177
412.538
404.868
397.177
389.478
381.781
374.098
366.438
358.811
351.226
343.692
336.218
328.811
321.48
314.233
307.078
300.022
293.075
286.244
279.541
272.975
266.557
260.301
254.22
248.324
242.634
237.1
231.619
8.70752
4.0821
3.12677
2.81433
2.71566
2.71457
2.77353
2.87425
3.00764
3.16894
3.35584
3.56737
3.80267
4.06177
4.34524
4.65393
4.98873
5.34995
5.73968
6.16169
6.61943
7.11655
7.6571
8.24564
8.88771
9.58954
10.3563
11.1948
12.1123
13.117
14.2174
15.4233
16.7439
18.189
19.7689
21.4946
23.3773
25.4286
27.6598
30.0823
32.7072
35.5452
38.6066
41.901
45.4377
49.225
53.2696
57.5776
62.1548
67.007
72.14
77.5607
83.2741
89.2727
95.552
102.108
108.935
116.03
123.385
130.994
138.849
146.944
155.27
163.817
172.577
181.539
190.692
200.027
209.531
219.194
229.003
238.946
249.011
259.185
269.454
279.807
290.228
300.705
311.223
321.768
332.326
342.883
353.424
363.934
374.397
384.8
395.127
405.362
415.491
425.497
435.365
445.081
454.628
463.992
473.157
482.108
490.831
499.311
507.534
515.485
523.153
530.523
537.583
544.322
550.728
556.791
562.502
567.849
572.824
577.42
581.629
585.445
588.862
591.874
594.481
596.676
598.456
599.826
600.772
601.316
601.428
601.167
600.477
599.379
597.881
595.991
593.714
591.059
588.036
584.654
580.922
576.847
572.443
567.721
562.694
557.376
551.778
545.916
539.803
533.454
526.884
520.108
513.14
505.996
498.69
491.238
483.654
475.954
468.153
460.264
452.301
444.279
436.211
428.11
419.987
411.855
403.726
395.609
387.516
379.457
371.44
363.475
355.569
347.732
339.969
332.29
324.702
317.213
309.829
302.56
295.414
288.399
281.526
274.806
268.251
261.873
255.68
249.697
243.87
238.139
8.58668
4.02872
3.08134
2.77028
2.67206
2.67234
2.73513
2.8421
2.98428
3.15705
3.35766
3.58393
3.83732
4.1191
4.43092
4.77496
5.15405
5.57217
6.03325
6.54172
7.10313
7.72389
8.41129
9.17349
10.0196
10.9596
12.0035
13.1627
14.4497
15.8775
17.46
19.2113
21.146
23.2786
25.6243
28.1976
31.0122
34.0814
37.4175
41.0322
44.9359
49.1363
53.6394
58.4506
63.5746
69.0134
74.7655
80.8288
87.2033
93.8864
100.873
108.175
115.75
123.588
131.679
140.01
148.57
157.345
166.322
175.491
184.837
194.349
204.016
213.824
223.763
233.821
243.986
254.247
264.594
275.014
285.497
296.032
306.607
317.213
327.837
338.468
349.096
359.709
370.295
380.844
391.343
401.781
412.146
422.426
432.608
442.681
452.631
462.447
472.114
481.621
490.955
500.102
509.049
517.784
526.292
534.562
542.581
550.336
557.815
565.006
571.896
578.475
584.732
590.657
596.239
601.472
606.345
610.849