/*--------------------------------*- C++ -*----------------------------------*\
  =========                 |
  \\      /  F ield         | OpenFOAM: The Open Source CFD Toolbox
   \\    /   O peration     | Website:  https://openfoam.org
    \\  /    A nd           | Version:  6
     \\/     M anipulation  |
\*---------------------------------------------------------------------------*/
FoamFile
{
    version     2.0;
    format      ascii;
    class       volScalarField;
    location    "288";
    object      k;
}
// * * * * * * * * * * * * * * * * * * * * * * * * * * * * * * * * * * * * * //

dimensions      [0 2 -2 0 0 0 0];

internalField   nonuniform List<scalar> 
12225
(
0.362816
0.343986
0.327752
0.309809
0.295412
0.283467
0.275529
0.270278
0.270336
0.271891
0.276028
0.280779
0.289794
0.295875
0.306558
0.313531
0.325486
0.330214
0.440186
0.468697
0.461606
0.448367
0.450346
0.458307
0.474579
0.498485
0.524413
0.552061
0.58073
0.606102
0.633784
0.653792
0.67963
0.692966
0.717812
0.724541
0.39054
0.417873
0.420232
0.416827
0.411628
0.407802
0.408021
0.410033
0.414565
0.421381
0.430716
0.439702
0.451149
0.461129
0.472785
0.483487
0.493423
0.505779
0.377546
0.386982
0.391407
0.391343
0.390221
0.387895
0.385664
0.384079
0.382884
0.382896
0.383354
0.384376
0.386268
0.388457
0.390893
0.394221
0.396509
0.40092
0.374562
0.37609
0.378412
0.378666
0.378263
0.377204
0.37549
0.373737
0.37201
0.370455
0.369255
0.368109
0.367378
0.366801
0.36644
0.366326
0.366342
0.366685
0.373814
0.372709
0.372645
0.372384
0.371761
0.370816
0.369554
0.368083
0.366572
0.364977
0.363528
0.362064
0.360756
0.359528
0.358397
0.357425
0.356436
0.355778
0.373782
0.371742
0.370386
0.369287
0.368234
0.367114
0.365915
0.364587
0.363239
0.361808
0.360423
0.359025
0.357679
0.356384
0.355122
0.353968
0.352795
0.351803
0.37382
0.37156
0.369634
0.367976
0.366501
0.365108
0.363776
0.36243
0.361108
0.359767
0.358451
0.357145
0.355865
0.354624
0.353403
0.352252
0.351101
0.350054
0.373832
0.371553
0.369449
0.367525
0.365777
0.364154
0.362645
0.361199
0.359818
0.358474
0.357171
0.355904
0.354669
0.353477
0.35231
0.351198
0.350099
0.349075
0.373831
0.37156
0.369418
0.367405
0.365529
0.363773
0.362133
0.360585
0.359122
0.357728
0.356395
0.355119
0.353889
0.352712
0.351571
0.350483
0.349422
0.348422
0.373829
0.37156
0.369413
0.367378
0.365458
0.363645
0.361937
0.360324
0.358799
0.357353
0.35598
0.354673
0.353425
0.352237
0.351096
0.35001
0.348961
0.347971
0.373828
0.371558
0.369409
0.36737
0.365439
0.363609
0.361876
0.360234
0.358678
0.357202
0.3558
0.354469
0.353201
0.351995
0.350843
0.349748
0.348696
0.347702
0.373827
0.371556
0.369405
0.367365
0.36543
0.363593
0.361851
0.360197
0.358626
0.357134
0.355716
0.354368
0.353085
0.351865
0.350701
0.349595
0.348536
0.347532
0.373826
0.371555
0.369401
0.367359
0.365422
0.363583
0.361837
0.360178
0.3586
0.357101
0.355674
0.354317
0.353025
0.351795
0.350622
0.349506
0.34844
0.347427
0.373826
0.371553
0.369398
0.367355
0.365416
0.363575
0.361826
0.360164
0.358584
0.357081
0.355651
0.35429
0.352993
0.351758
0.35058
0.349458
0.348388
0.347368
0.373826
0.371552
0.369396
0.367351
0.36541
0.363567
0.361817
0.360153
0.358571
0.357067
0.355634
0.35427
0.352971
0.351734
0.350554
0.349429
0.348356
0.347333
0.373825
0.371551
0.369394
0.367348
0.365406
0.363562
0.36181
0.360145
0.358561
0.357055
0.355621
0.354256
0.352955
0.351716
0.350534
0.349408
0.348333
0.347308
0.373825
0.371551
0.369393
0.367346
0.365403
0.363558
0.361805
0.360139
0.358554
0.357047
0.355612
0.354245
0.352943
0.351703
0.35052
0.349392
0.348316
0.347289
0.373825
0.37155
0.369393
0.367345
0.365402
0.363557
0.361804
0.360137
0.358552
0.357043
0.355607
0.35424
0.352938
0.351696
0.350513
0.349384
0.348307
0.34728
0.373825
0.371551
0.369393
0.367347
0.365404
0.363559
0.361806
0.360139
0.358554
0.357046
0.355611
0.354244
0.352941
0.3517
0.350516
0.349388
0.348311
0.347284
0.373826
0.371551
0.369395
0.367349
0.365407
0.363563
0.361811
0.360145
0.358562
0.357055
0.355621
0.354255
0.352954
0.351715
0.350533
0.349406
0.348332
0.347306
0.373826
0.371552
0.369397
0.367352
0.365412
0.363571
0.361822
0.360161
0.358583
0.357083
0.355656
0.354298
0.353006
0.351774
0.350601
0.349482
0.348416
0.347397
0.373826
0.371554
0.369399
0.367359
0.365428
0.363602
0.361875
0.36024
0.35869
0.35722
0.355823
0.354493
0.353226
0.352018
0.350865
0.349762
0.34871
0.3477
0.373828
0.371551
0.369412
0.367417
0.365556
0.363819
0.362189
0.360651
0.359189
0.357793
0.356456
0.355171
0.353935
0.352745
0.3516
0.350495
0.349435
0.348409
0.373823
0.371554
0.369604
0.367893
0.366339
0.364892
0.363495
0.362122
0.360761
0.359413
0.35808
0.356769
0.355488
0.354237
0.353028
0.351855
0.350733
0.349644
0.373788
0.371991
0.371113
0.370266
0.36936
0.368311
0.367048
0.365629
0.36412
0.362575
0.36103
0.359522
0.358073
0.356682
0.355381
0.354141
0.353009
0.351923
0.374355
0.375572
0.377775
0.377857
0.377288
0.375886
0.373835
0.371641
0.369505
0.367482
0.365664
0.364084
0.36271
0.361535
0.36061
0.359818
0.359289
0.358801
0.379125
0.394296
0.398249
0.396573
0.392538
0.387603
0.383646
0.380448
0.378268
0.376853
0.376498
0.376742
0.377416
0.378692
0.380443
0.382425
0.38483
0.387141
0.408394
0.427541
0.422416
0.411056
0.402227
0.397925
0.398628
0.400965
0.406073
0.413059
0.421005
0.429835
0.438844
0.4482
0.457318
0.466564
0.475335
0.484196
0.36605
0.353416
0.341988
0.33021
0.318982
0.308382
0.299411
0.291671
0.285404
0.280334
0.276682
0.273868
0.272313
0.271176
0.271213
0.271475
0.272192
0.273393
0.000536
0.00314852
0.00588502
0.00829209
0.0105608
0.0131096
0.0160531
0.0195639
0.0237394
0.0285809
0.0339955
0.0398644
0.046053
0.0524551
0.0589674
0.0655172
0.0720271
0.078442
0.0846973
0.0907419
0.0965147
0.101953
0.106996
0.111563
0.115592
0.118987
0.121702
0.123658
0.124873
0.125256
0.124894
0.123681
0.122632
0.121849
0.126805
0.131322
0.135698
0.139354
0.140937
0.140729
0.135046
0.144886
0.149621
0.158472
0.16465
0.172914
0.180339
0.188509
0.196555
0.204923
0.213374
0.222029
0.230822
0.239786
0.248902
0.25818
0.267612
0.277202
0.286946
0.296843
0.306891
0.317088
0.32743
0.337914
0.348536
0.359294
0.370179
0.381188
0.392315
0.403554
0.414897
0.426338
0.437869
0.449482
0.461166
0.472916
0.484719
0.496568
0.508449
0.520357
0.532275
0.544197
0.556107
0.567996
0.579849
0.591656
0.603399
0.615069
0.626647
0.638118
0.649464
0.660664
0.671696
0.682537
0.693165
0.703561
0.713719
0.723666
0.733491
0.743039
0.75238
0.761476
0.770331
0.778927
0.787258
0.795312
0.803078
0.810549
0.817713
0.824563
0.831089
0.837286
0.843143
0.848655
0.853814
0.858615
0.863052
0.86712
0.870815
0.874135
0.877074
0.87963
0.881797
0.883577
0.884966
0.885966
0.886572
0.88678
0.886646
0.886164
0.885229
0.883875
0.882108
0.880052
0.87768
0.874874
0.87174
0.86825
0.864422
0.860263
0.855782
0.85099
0.845901
0.840515
0.834844
0.828897
0.822686
0.816222
0.809516
0.80258
0.795425
0.788063
0.780508
0.772771
0.764864
0.756801
0.748595
0.740259
0.731809
0.723262
0.714645
0.706022
0.697753
0.692075
0.688171
0.684389
0.680577
0.676721
0.672826
0.668896
0.664936
0.660945
0.656918
0.652839
0.648672
0.644339
0.639681
0.634258
0.627182
0.601244
0.00276214
0.0115642
0.0175843
0.0220457
0.0259559
0.0297502
0.0337839
0.0382678
0.0432947
0.048863
0.0549061
0.0613321
0.0680398
0.0749408
0.0819557
0.0890216
0.096081
0.103087
0.109993
0.116757
0.123337
0.129686
0.135759
0.141498
0.146854
0.151763
0.156186
0.160077
0.163482
0.166519
0.169565
0.173317
0.179099
0.188136
0.196681
0.205482
0.214099
0.22397
0.233857
0.244437
0.255749
0.26976
0.283377
0.29555
0.307573
0.320446
0.333596
0.347142
0.360991
0.375176
0.389673
0.404489
0.419619
0.435066
0.450828
0.466908
0.483306
0.500022
0.517058
0.534412
0.552084
0.570073
0.588377
0.606994
0.62592
0.645151
0.664682
0.684507
0.70462
0.725012
0.745675
0.766601
0.787778
0.809195
0.83084
0.852701
0.874763
0.897011
0.91943
0.942004
0.964714
0.987544
1.01047
1.03348
1.05655
1.07966
1.10278
1.1259
1.14898
1.172
1.19494
1.21777
1.24044
1.26293
1.28519
1.30717
1.32882
1.35007
1.37085
1.39135
1.41154
1.4314
1.45091
1.47004
1.48878
1.50711
1.525
1.54243
1.55938
1.57584
1.59178
1.60718
1.62203
1.6363
1.64999
1.66308
1.67555
1.68738
1.69857
1.70911
1.71898
1.72817
1.73667
1.74447
1.75157
1.75796
1.76364
1.76861
1.77287
1.77643
1.77927
1.78128
1.78245
1.78301
1.78303
1.78222
1.78072
1.77853
1.77565
1.77209
1.76787
1.76301
1.75751
1.75138
1.74464
1.73731
1.72941
1.72095
1.71194
1.70242
1.69239
1.68188
1.67092
1.65951
1.64769
1.63547
1.62288
1.60995
1.59669
1.58313
1.56931
1.55526
1.54112
1.52732
1.51371
1.5
1.48617
1.47223
1.45821
1.44412
1.43
1.41584
1.40166
1.38746
1.37321
1.35889
1.3443
1.32947
1.313
1.27635
0.00592543
0.0200174
0.0280739
0.0340283
0.0392788
0.044368
0.0495991
0.0551524
0.0611142
0.0674978
0.074264
0.0813489
0.0886796
0.0961893
0.10382
0.111524
0.119264
0.127008
0.134731
0.142411
0.15003
0.157571
0.165022
0.172375
0.179636
0.186821
0.193988
0.201232
0.208721
0.216677
0.225406
0.235198
0.246213
0.258195
0.270203
0.282488
0.295174
0.30856
0.322494
0.337075
0.352337
0.36827
0.384264
0.400355
0.416725
0.433539
0.450751
0.468365
0.486364
0.504752
0.523523
0.542678
0.562217
0.58214
0.602447
0.623138
0.644214
0.665674
0.687517
0.709743
0.73235
0.755334
0.778694
0.802425
0.826522
0.850979
0.87579
0.900947
0.926441
0.952263
0.978402
1.00485
1.03158
1.0586
1.08587
1.1134
1.14115
1.16912
1.19728
1.22562
1.2541
1.28272
1.31144
1.34024
1.3691
1.39799
1.42689
1.45576
1.48458
1.51331
1.54193
1.57041
1.5987
1.62678
1.65462
1.68218
1.70943
1.73635
1.76292
1.78914
1.81497
1.84037
1.86534
1.88982
1.9138
1.93724
1.96013
1.98242
2.00409
2.02513
2.0455
2.06517
2.08414
2.10236
2.11983
2.13652
2.15241
2.16749
2.18174
2.19514
2.20768
2.21934
2.23011
2.23999
2.24896
2.25702
2.26417
2.27039
2.2757
2.28009
2.28353
2.28602
2.28742
2.28797
2.28776
2.28657
2.28447
2.28148
2.27761
2.27288
2.26729
2.26087
2.25364
2.2456
2.23678
2.22721
2.2169
2.20587
2.19416
2.18177
2.16875
2.15511
2.14089
2.12611
2.11079
2.09497
2.07868
2.06195
2.04481
2.02729
2.00943
1.99128
1.97296
1.95468
1.9364
1.91801
1.89947
1.88081
1.86206
1.84324
1.82438
1.80552
1.78667
1.76785
1.74908
1.73039
1.71172
1.69318
1.67353
1.64166
0.00959512
0.0280955
0.0380559
0.0452975
0.0515917
0.0575952
0.0636442
0.0699299
0.0765493
0.0835317
0.0908587
0.0984857
0.106358
0.114423
0.122637
0.130963
0.139378
0.147864
0.156413
0.16502
0.173689
0.182429
0.191254
0.200187
0.209267
0.218543
0.228089
0.237998
0.248394
0.259406
0.271161
0.283734
0.297105
0.31112
0.325539
0.340391
0.355754
0.371708
0.388252
0.405386
0.423072
0.44124
0.45977
0.478643
0.497881
0.517533
0.537609
0.558115
0.579051
0.600421
0.622224
0.644463
0.66714
0.690255
0.71381
0.737806
0.762243
0.787122
0.812442
0.838203
0.864402
0.891038
0.918108
0.945606
0.973529
1.00187
1.03062
1.05977
1.08932
1.11925
1.14955
1.18021
1.2112
1.24253
1.27417
1.3061
1.3383
1.37075
1.40343
1.43632
1.46939
1.50262
1.53598
1.56943
1.60297
1.63654
1.67012
1.70369
1.7372
1.77062
1.80393
1.83708
1.87004
1.90278
1.93526
1.96745
1.99932
2.03083
2.06196
2.09266
2.12291
2.15266
2.18189
2.21055
2.23861
2.26603
2.29279
2.31885
2.34418
2.36874
2.39251
2.41546
2.43756
2.45878
2.47911
2.49851
2.51696
2.53445
2.55094
2.56644
2.58091
2.59434
2.60672
2.61804
2.62829
2.63745
2.64554
2.65253
2.65844
2.66325
2.66696
2.66954
2.67087
2.67124
2.67059
2.66885
2.66604
2.66218
2.65728
2.65137
2.64447
2.63658
2.62774
2.61796
2.60728
2.59571
2.58327
2.57001
2.55594
2.5411
2.52551
2.50922
2.49224
2.47461
2.45637
2.43755
2.41818
2.3983
2.37795
2.35717
2.336
2.3145
2.29277
2.27093
2.24901
2.22694
2.20471
2.18236
2.15992
2.13742
2.11489
2.09239
2.06995
2.04762
2.02544
2.00351
1.98187
1.96071
1.93892
1.90959
0.0133201
0.0356957
0.0474196
0.0558508
0.0630739
0.0698454
0.0765465
0.0833924
0.0905003
0.0979214
0.10566
0.113693
0.121985
0.130495
0.139193
0.148052
0.157058
0.166205
0.175496
0.184938
0.19455
0.204354
0.214379
0.224661
0.235245
0.246182
0.257534
0.269368
0.281757
0.294768
0.308456
0.32284
0.337898
0.353573
0.369796
0.386558
0.403872
0.421759
0.440219
0.459239
0.478792
0.49884
0.519347
0.540294
0.561684
0.583529
0.605842
0.628627
0.651891
0.675638
0.699872
0.724595
0.749812
0.775524
0.801736
0.828448
0.855662
0.88338
0.911603
0.94033
0.96956
0.999291
1.02952
1.06025
1.09146
1.12316
1.15534
1.18799
1.22109
1.25464
1.28863
1.32304
1.35785
1.39304
1.42861
1.46452
1.50076
1.5373
1.57412
1.61119
1.64848
1.68597
1.72361
1.7614
1.79927
1.83722
1.87519
1.91315
1.95107
1.98891
2.02662
2.06418
2.10154
2.13866
2.1755
2.21203
2.2482
2.28397
2.3193
2.35415
2.38847
2.42222
2.45537
2.48787
2.51968
2.55076
2.58107
2.61058
2.63924
2.66702
2.69389
2.71981
2.74476
2.76869
2.79159
2.81342
2.83417
2.8538
2.87229
2.88963
2.9058
2.92077
2.93453
2.94708
2.95839
2.96847
2.97731
2.9849
2.99124
2.99634
3.00017
3.0027
3.00386
3.00394
3.00279
3.00042
2.99683
2.99206
2.98611
2.97901
2.97078
2.96144
2.95102
2.93955
2.92705
2.91355
2.89909
2.88369
2.86738
2.85021
2.83221
2.81341
2.79385
2.77356
2.75259
2.73098
2.70876
2.68597
2.66266
2.63888
2.61467
2.59009
2.56522
2.54017
2.51496
2.48958
2.46404
2.43836
2.4126
2.38679
2.36099
2.33524
2.3096
2.28415
2.25897
2.23419
2.20995
2.18645
2.16274
2.134
0.0168943
0.0426317
0.0559454
0.0654644
0.0735269
0.0809739
0.088229
0.0955327
0.103024
0.110777
0.118818
0.127147
0.135746
0.14459
0.15366
0.162941
0.172425
0.182115
0.192021
0.202158
0.212553
0.223232
0.234233
0.245592
0.257353
0.269559
0.282257
0.295491
0.309307
0.323738
0.338814
0.354541
0.370912
0.387904
0.405494
0.423669
0.442428
0.461769
0.481687
0.502173
0.523212
0.544787
0.566884
0.589494
0.612613
0.636246
0.6604
0.68508
0.710293
0.736045
0.762341
0.789187
0.816588
0.844547
0.87307
0.90216
0.931819
0.962052
0.992859
1.02424
1.0562
1.08874
1.12184
1.15552
1.18977
1.22457
1.25993
1.29583
1.33227
1.36923
1.4067
1.44467
1.4831
1.522
1.56133
1.60108
1.64121
1.68171
1.72254
1.76367
1.80508
1.84672
1.88857
1.93059
1.97274
2.01498
2.05727
2.09957
2.14184
2.18403
2.2261
2.26801
2.3097
2.35114
2.39228
2.43307
2.47345
2.51339
2.55283
2.59172
2.63002
2.66768
2.70466
2.74089
2.77635
2.81098
2.84474
2.87759
2.90948
2.94037
2.97023
2.99902
3.02669
3.05323
3.07859
3.10274
3.12566
3.14733
3.1677
3.18677
3.20452
3.22092
3.23595
3.24961
3.26189
3.27277
3.28226
3.29034
3.29703
3.3023
3.30617
3.30856
3.30951
3.30919
3.30748
3.30441
3.29999
3.29424
3.28718
3.27885
3.26926
3.25845
3.24644
3.23325
3.21894
3.20352
3.18703
3.16952
3.15101
3.13155
3.11117
3.08992
3.06784
3.04497
3.02135
2.99703
2.97205
2.94646
2.9203
2.89363
2.8665
2.83896
2.8111
2.78298
2.75466
2.72615
2.69746
2.66865
2.63975
2.61082
2.58192
2.55311
2.52447
2.4961
2.4681
2.44066
2.41394
2.38816
2.36246
2.3331
0.0201833
0.048775
0.0634776
0.0739602
0.082767
0.0908077
0.0985407
0.106228
0.114029
0.122037
0.130301
0.138839
0.147653
0.156734
0.166073
0.175666
0.185514
0.195623
0.20601
0.216695
0.227705
0.239072
0.25083
0.263015
0.275666
0.288817
0.302505
0.31676
0.331611
0.347078
0.363177
0.379915
0.39729
0.415295
0.43392
0.453159
0.473006
0.493459
0.514513
0.536163
0.558404
0.581227
0.604629
0.628605
0.653154
0.678278
0.703983
0.730275
0.757162
0.784649
0.812746
0.841457
0.870792
0.900755
0.931353
0.962591
0.994475
1.02701
1.0602
1.09404
1.12854
1.1637
1.19952
1.23599
1.27312
1.31089
1.34931
1.38835
1.42801
1.46828
1.50915
1.55059
1.59259
1.63512
1.67816
1.7217
1.76569
1.81011
1.85493
1.90011
1.94562
1.99142
2.03748
2.08374
2.13016
2.17671
2.22333
2.26998
2.31661
2.36317
2.40961
2.45587
2.50191
2.54767
2.5931
2.63814
2.68273
2.72682
2.77035
2.81327
2.85553
2.89707
2.93784
2.97778
3.01685
3.055
3.09216
3.1283
3.16337
3.19733
3.23012
3.26171
3.29206
3.32113
3.34888
3.37528
3.40031
3.42393
3.44611
3.46683
3.48608
3.50382
3.52004
3.53474
3.54789
3.55949
3.56954
3.57804
3.58497
3.59035
3.59418
3.59637
3.59703
3.59622
3.59389
3.59005
3.58473
3.57796
3.56975
3.56013
3.54915
3.53681
3.52317
3.50826
3.4921
3.47475
3.45623
3.4366
3.41588
3.39414
3.37141
3.34773
3.32316
3.29773
3.27151
3.24453
3.21685
3.18851
3.15957
3.13009
3.1001
3.06969
3.03891
3.00783
2.97652
2.94499
2.91328
2.88145
2.84953
2.81761
2.78573
2.75399
2.72247
2.69128
2.66057
2.63054
2.60138
2.57329
2.54547
2.51467
0.0230909
0.0540437
0.0699184
0.0812227
0.0906677
0.099217
0.107356
0.115364
0.123415
0.131619
0.140043
0.148724
0.157679
0.166915
0.176436
0.186245
0.196351
0.206766
0.217508
0.228599
0.240069
0.251947
0.264264
0.277055
0.29035
0.30418
0.318573
0.333551
0.349136
0.365343
0.382182
0.39966
0.417781
0.436543
0.455944
0.475982
0.496656
0.517965
0.539908
0.562484
0.585694
0.609537
0.634012
0.65912
0.684864
0.711248
0.738277
0.76596
0.794305
0.82332
0.853014
0.883397
0.914478
0.946265
0.978767
1.01199
1.04594
1.08063
1.11606
1.15224
1.18916
1.22684
1.26526
1.30444
1.34436
1.38503
1.42643
1.46855
1.5114
1.55494
1.59916
1.64406
1.6896
1.73576
1.78251
1.82983
1.87769
1.92605
1.97488
2.02413
2.07377
2.12375
2.17403
2.22456
2.2753
2.32618
2.37716
2.42819
2.47921
2.53015
2.58098
2.63162
2.68201
2.73209
2.78181
2.83109
2.87988
2.92812
2.97573
3.02266
3.06885
3.11425
3.15878
3.2024
3.24504
3.28665
3.32718
3.36656
3.40475
3.4417
3.47736
3.51169
3.54464
3.57617
3.60624
3.63481
3.66186
3.68735
3.71125
3.73354
3.75419
3.77319
3.79052
3.80615
3.82009
3.83232
3.84285
3.85166
3.85877
3.86417
3.86787
3.86978
3.87007
3.86871
3.86568
3.86102
3.85474
3.84688
3.83746
3.82652
3.81409
3.8002
3.7849
3.76822
3.75021
3.7309
3.71034
3.68859
3.66568
3.64166
3.61659
3.59051
3.56347
3.53553
3.50675
3.47716
3.44683
3.4158
3.38414
3.35191
3.31914
3.28592
3.25231
3.21837
3.18415
3.14971
3.11509
3.08034
3.04552
3.0107
2.97596
2.94138
2.90707
2.87317
2.83982
2.80725
2.77565
2.74521
2.71516
2.68276
0.0255583
0.0584049
0.0752283
0.0872026
0.0971706
0.106138
0.114609
0.122875
0.131122
0.139472
0.148006
0.156776
0.165814
0.17514
0.184769
0.194711
0.204983
0.215599
0.226582
0.237952
0.249739
0.261968
0.274671
0.287875
0.301608
0.315897
0.330763
0.346228
0.362308
0.379016
0.396363
0.414358
0.433005
0.45231
0.472274
0.492901
0.514192
0.536152
0.558783
0.58209
0.606075
0.630745
0.656103
0.682155
0.708906
0.736364
0.764537
0.793435
0.823068
0.853447
0.884584
0.916491
0.949177
0.982656
1.01694
1.05203
1.08794
1.12469
1.16227
1.20069
1.23997
1.28009
1.32107
1.3629
1.40558
1.44911
1.49347
1.53866
1.58467
1.63148
1.67907
1.72742
1.77651
1.82632
1.8768
1.92794
1.97969
2.03201
2.08487
2.13822
2.19201
2.2462
2.30073
2.35556
2.41062
2.46585
2.52121
2.57662
2.63202
2.68735
2.74255
2.79755
2.85227
2.90665
2.96063
3.01412
3.06707
3.11939
3.17103
3.22192
3.27198
3.32116
3.36938
3.41659
3.46272
3.5077
3.55149
3.59402
3.63523
3.67508
3.7135
3.75045
3.78589
3.81976
3.85203
3.88266
3.91161
3.93885
3.96436
3.98809
4.01004
4.03017
4.04848
4.06495
4.07956
4.09232
4.10321
4.11224
4.11941
4.12474
4.12821
4.1298
4.12961
4.12762
4.12382
4.11826
4.11096
4.10196
4.09128
4.07897
4.06506
4.04959
4.0326
4.01414
3.99426
3.973
3.95041
3.92655
3.90145
3.87519
3.84781
3.81937
3.78992
3.75952
3.72822
3.69609
3.66318
3.62954
3.59524
3.56034
3.52488
3.48895
3.4526
3.41589
3.3789
3.34166
3.30424
3.26669
3.22908
3.19149
3.15399
3.11669
3.0797
3.04316
3.00725
2.97218
2.93816
2.90533
2.87299
2.83887
0.0275534
0.0618634
0.079418
0.091909
0.102281
0.111572
0.120299
0.12876
0.13715
0.145599
0.154199
0.163013
0.172085
0.181445
0.191118
0.201122
0.211477
0.222203
0.233323
0.244859
0.256836
0.269281
0.282219
0.295676
0.309677
0.324244
0.339397
0.355156
0.371537
0.388553
0.406218
0.424541
0.443531
0.463198
0.483547
0.504587
0.526323
0.548764
0.571918
0.595793
0.620397
0.645739
0.671827
0.698672
0.726284
0.754673
0.783851
0.813831
0.844626
0.876251
0.90872
0.942046
0.976243
1.01133
1.04731
1.0842
1.12201
1.16076
1.20044
1.24108
1.28268
1.32523
1.36874
1.41322
1.45866
1.50505
1.55239
1.60066
1.64986
1.69996
1.75094
1.80278
1.85545
1.90893
1.96317
2.01814
2.07381
2.13012
2.18703
2.24448
2.30244
2.36084
2.41962
2.47873
2.5381
2.59766
2.65735
2.71711
2.77685
2.83651
2.89602
2.9553
3.01427
3.07286
3.13099
3.18859
3.24558
3.30188
3.35742
3.41212
3.46591
3.51873
3.57049
3.62114
3.67059
3.71879
3.76568
3.81118
3.85524
3.8978
3.93881
3.97821
4.01596
4.052
4.0863
4.11881
4.14949
4.17832
4.20525
4.23027
4.25335
4.27447
4.29361
4.31075
4.3259
4.33903
4.35016
4.35928
4.3664
4.37154
4.37468
4.37585
4.37509
4.37238
4.36774
4.36122
4.35284
4.34264
4.33066
4.31694
4.30152
4.28445
4.26577
4.24554
4.22379
4.2006
4.176
4.15006
4.12283
4.09437
4.06474
4.034
4.00221
3.96943
3.93571
3.90113
3.86574
3.82959
3.79276
3.7553
3.71728
3.67875
3.63979
3.60046
3.56082
3.52093
3.48085
3.44065
3.40039
3.36016
3.32004
3.28014
3.24059
3.20153
3.16314
3.12564
3.08922
3.05403
3.01938
2.98333
0.0290715
0.0644562
0.0825373
0.0953982
0.106058
0.115579
0.124483
0.133075
0.141553
0.150054
0.158677
0.167492
0.176553
0.1859
0.195565
0.205572
0.215945
0.226707
0.237878
0.249482
0.261543
0.274083
0.287128
0.3007
0.314823
0.329517
0.344802
0.360697
0.377221
0.394388
0.412214
0.430712
0.449896
0.469779
0.49037
0.511683
0.533729
0.55652
0.580069
0.604388
0.629489
0.655386
0.682092
0.709624
0.737995
0.767219
0.797312
0.828291
0.860174
0.892977
0.926718
0.961413
0.997081
1.03374
1.07139
1.11007
1.14977
1.19052
1.23233
1.27519
1.31913
1.36414
1.41023
1.45739
1.50563
1.55493
1.60529
1.65669
1.70912
1.76256
1.81697
1.87234
1.92864
1.98581
2.04384
2.10267
2.16226
2.22256
2.28351
2.34506
2.40715
2.46972
2.5327
2.59603
2.65963
2.72343
2.78736
2.85134
2.9153
2.97915
3.04281
3.10621
3.16926
3.23187
3.29397
3.35547
3.41629
3.47635
3.53556
3.59385
3.65113
3.70734
3.76239
3.81621
3.86874
3.9199
3.96961
4.01783
4.06447
4.10949
4.15283
4.19442
4.23422
4.27218
4.30825
4.34239
4.37457
4.40474
4.43288
4.45896
4.48296
4.50485
4.52462
4.54226
4.55775
4.5711
4.5823
4.59136
4.59829
4.60309
4.6058
4.60641
4.60501
4.60149
4.59592
4.58836
4.57884
4.56741
4.55409
4.53895
4.52201
4.50334
4.48298
4.46099
4.43742
4.41233
4.38577
4.35782
4.32853
4.29796
4.26617
4.23324
4.19921
4.16416
4.12815
4.09124
4.05351
4.015
3.97578
3.93592
3.89549
3.85453
3.81312
3.77133
3.72923
3.68686
3.6443
3.60162
3.55889
3.51618
3.47361
3.43128
3.38931
3.34786
3.30711
3.26728
3.22854
3.19103
3.1541
3.11609
0.0301313
0.0662503
0.0846674
0.0977616
0.108599
0.118257
0.127261
0.135918
0.144429
0.152934
0.161538
0.170319
0.179336
0.188634
0.198248
0.208207
0.218537
0.229262
0.240405
0.251987
0.264034
0.276566
0.289607
0.303179
0.317304
0.332004
0.347299
0.363208
0.37975
0.396946
0.414814
0.433373
0.452639
0.472631
0.493363
0.514852
0.537116
0.560172
0.584037
0.608726
0.634256
0.660645
0.687912
0.716078
0.745163
0.775185
0.806166
0.838126
0.871087
0.90507
0.940095
0.976182
1.01335
1.05162
1.091
1.13152
1.17318
1.216
1.26
1.30518
1.35154
1.3991
1.44786
1.4978
1.54893
1.60123
1.6547
1.70932
1.76506
1.8219
1.87981
1.93876
1.99871
2.05961
2.12143
2.18412
2.24761
2.31186
2.3768
2.44237
2.5085
2.57513
2.64218
2.70958
2.77725
2.8451
2.91307
2.98106
3.04899
3.11677
3.18433
3.25156
3.31839
3.38472
3.45047
3.51554
3.57985
3.64331
3.70584
3.76735
3.82776
3.88698
3.94495
4.00158
4.05679
4.11053
4.1627
4.21325
4.26211
4.30921
4.35451
4.39793
4.43943
4.47896
4.51647
4.55192
4.58528
4.61649
4.64554
4.6724
4.69704
4.71944
4.7396
4.75749
4.77311
4.78645
4.79753
4.80635
4.81292
4.81725
4.81937
4.81932
4.81716
4.81272
4.80615
4.7975
4.78679
4.77408
4.75942
4.74283
4.72439
4.70414
4.68214
4.65844
4.6331
4.6062
4.57778
4.54791
4.51667
4.48411
4.45029
4.4153
4.37919
4.34204
4.3039
4.26485
4.22494
4.18426
4.14285
4.10079
4.05814
4.01496
3.97132
3.92729
3.88293
3.83831
3.79349
3.74854
3.70355
3.65859
3.61377
3.56919
3.52499
3.48133
3.43838
3.39635
3.3554
3.31567
3.27657
3.23666
0.0307751
0.0673252
0.0859071
0.0991102
0.110023
0.11973
0.128758
0.137417
0.145911
0.154382
0.162935
0.171651
0.180586
0.189791
0.199307
0.209165
0.219395
0.23002
0.241065
0.252552
0.264503
0.276942
0.28989
0.303371
0.317408
0.332026
0.34725
0.363095
0.379583
0.396736
0.414575
0.433124
0.452405
0.472439
0.493251
0.514864
0.537314
0.560616
0.584787
0.609849
0.635817
0.662705
0.690545
0.719367
0.749199
0.780067
0.811995
0.84501
0.879136
0.914397
0.950818
0.988418
1.02722
1.06724
1.1085
1.15101
1.1948
1.23986
1.28623
1.33389
1.38286
1.43314
1.48472
1.5376
1.59178
1.64723
1.70394
1.76188
1.82103
1.88136
1.94282
2.00539
2.06901
2.13364
2.19922
2.2657
2.33301
2.4011
2.46989
2.53932
2.6093
2.67977
2.75064
2.82184
2.89328
2.96487
3.03652
3.10815
3.17967
3.25099
3.32201
3.39264
3.46279
3.53237
3.60128
3.66943
3.73672
3.80308
3.86841
3.93262
3.99563
4.05735
4.1177
4.17661
4.234
4.28979
4.34391
4.39629
4.44686
4.49556
4.54234
4.58712
4.62987
4.67053
4.70905
4.74539
4.77951
4.81138
4.84097
4.86825
4.8932
4.9158
4.93604
4.9539
4.96938
4.98248
4.99321
5.00158
5.0076
5.01129
5.01268
5.01187
5.0088
5.00335
4.99571
4.98591
4.97398
4.95998
4.94396
4.92596
4.90605
4.88427
4.86069
4.83537
4.80837
4.77976
4.74961
4.71797
4.68492
4.65054
4.61488
4.57802
4.54003
4.50097
4.46092
4.41995
4.37812
4.33549
4.29214
4.24813
4.20352
4.15838
4.11277
4.06676
4.02041
3.9738
3.92699
3.88004
3.83305
3.78609
3.73927
3.69269
3.64649
3.60083
3.55587
3.51182
3.46883
3.42704
3.3859
3.34423
0.0309839
0.067709
0.0863267
0.0995389
0.110441
0.120125
0.129118
0.137728
0.146156
0.154549
0.163014
0.171637
0.180482
0.189593
0.199009
0.208763
0.218884
0.229396
0.240325
0.251692
0.263521
0.275836
0.288658
0.302012
0.315923
0.330415
0.34551
0.361233
0.377612
0.394676
0.412454
0.430976
0.450269
0.470362
0.491282
0.513058
0.535714
0.559281
0.583784
0.60925
0.63571
0.663179
0.691703
0.72132
0.752058
0.783945
0.817013
0.851291
0.88681
0.923595
0.961669
1.00105
1.04177
1.08383
1.12726
1.17207
1.21828
1.26589
1.31491
1.36535
1.4172
1.47046
1.52513
1.58118
1.63861
1.6974
1.7575
1.8189
1.88156
1.94544
2.01049
2.07667
2.14392
2.21219
2.28141
2.35152
2.42246
2.49414
2.56651
2.63947
2.71295
2.78688
2.86115
2.93569
3.01041
3.08521
3.16001
3.23472
3.30923
3.38346
3.45731
3.53069
3.6035
3.67564
3.74703
3.81756
3.88714
3.95569
4.02311
4.08931
4.15421
4.21773
4.27977
4.34027
4.39915
4.45632
4.51172
4.56528
4.61693
4.66661
4.71426
4.75983
4.80325
4.84448
4.88348
4.92021
4.95462
4.98668
5.01637
5.04365
5.06852
5.09094
5.11091
5.12842
5.14346
5.15605
5.16618
5.17387
5.17913
5.182
5.18251
5.18084
5.1767
5.17018
5.16141
5.15042
5.13726
5.12198
5.10463
5.08527
5.06395
5.04074
5.01569
4.98888
4.96036
4.9302
4.89849
4.86527
4.83063
4.79464
4.75737
4.71889
4.67927
4.63858
4.5969
4.55429
4.51081
4.46654
4.42155
4.37589
4.32964
4.28285
4.23559
4.18792
4.13992
4.09163
4.04315
3.99452
3.94584
3.89719
3.84866
3.80037
3.75245
3.70505
3.65834
3.61249
3.56768
3.52404
3.48105
3.43784
0.0309209
0.0676315
0.0861849
0.099343
0.110189
0.11981
0.12873
0.137258
0.145596
0.15389
0.162246
0.170744
0.179444
0.188399
0.197646
0.207222
0.217158
0.227482
0.238217
0.24939
0.261023
0.273142
0.285774
0.298943
0.312679
0.32701
0.341967
0.357585
0.373897
0.390935
0.408735
0.427331
0.446757
0.467045
0.488228
0.51034
0.533419
0.557511
0.582634
0.608815
0.636069
0.664438
0.693982
0.724735
0.756737
0.790023
0.82463
0.860595
0.897958
0.936734
0.976943
1.01861
1.06174
1.10635
1.15245
1.20005
1.24916
1.29978
1.35191
1.40554
1.46068
1.51729
1.57536
1.63488
1.69581
1.75811
1.82176
1.88671
1.95291
2.02032
2.08889
2.15854
2.22923
2.30089
2.37345
2.44683
2.52097
2.59579
2.67121
2.74715
2.82352
2.90024
2.97722
3.05437
3.13161
3.20883
3.28596
3.36289
3.43952
3.51578
3.59156
3.66677
3.74131
3.81508
3.888
3.95997
4.03091
4.10071
4.16928
4.23656
4.30243
4.36684
4.42968
4.4909
4.5504
4.60812
4.66399
4.71793
4.76988
4.81978
4.86758
4.91321
4.95664
4.9978
5.03666
5.07317
5.1073
5.13902
5.1683
5.19511
5.21944
5.24127
5.26059
5.27739
5.29168
5.30345
5.31272
5.31949
5.32379
5.32566
5.32521
5.32251
5.3172
5.30956
5.29962
5.28744
5.27306
5.25655
5.23794
5.21731
5.1947
5.17019
5.14384
5.1157
5.08587
5.05439
5.02134
4.9868
4.95084
4.91353
4.87494
4.83515
4.79422
4.75223
4.70925
4.66535
4.62059
4.57504
4.52877
4.48185
4.43432
4.38627
4.33774
4.2888
4.23951
4.18994
4.14015
4.09022
4.04022
3.99024
3.94036
3.8907
3.84138
3.79256
3.74439
3.69704
3.65067
3.60543
3.56086
3.51636
0.0307153
0.0672988
0.085668
0.0986699
0.109361
0.118821
0.127575
0.135932
0.144094
0.152205
0.160372
0.168675
0.177179
0.185935
0.194989
0.204374
0.214117
0.224249
0.234796
0.245785
0.257246
0.269207
0.281701
0.294759
0.308417
0.32271
0.337674
0.353349
0.369773
0.386988
0.405039
0.423977
0.443844
0.464674
0.486503
0.509369
0.533299
0.558292
0.584423
0.61176
0.640372
0.670314
0.701613
0.734303
0.76842
0.803998
0.841065
0.879646
0.919753
0.961415
1.00466
1.04952
1.09597
1.14401
1.19365
1.24487
1.29767
1.35205
1.40798
1.46544
1.52441
1.58486
1.64675
1.71006
1.77473
1.84071
1.90797
1.97645
2.04609
2.11684
2.18863
2.26139
2.33507
2.40959
2.48487
2.56086
2.63746
2.7146
2.7922
2.87018
2.94846
3.02695
3.10557
3.18423
3.26285
3.34132
3.41958
3.49752
3.57506
3.6521
3.72855
3.80433
3.87935
3.9535
4.02671
4.09888
4.16992
4.23976
4.30829
4.37545
4.44113
4.50528
4.56781
4.62864
4.68771
4.74494
4.80026
4.8536
4.9049
4.95411
5.00118
5.04604
5.08865
5.12896
5.16694
5.20254
5.23572
5.26646
5.29474
5.32052
5.3438
5.36455
5.38278
5.39846
5.41162
5.42224
5.43034
5.43593
5.43904
5.43971
5.43823
5.43424
5.42772
5.41887
5.40774
5.39437
5.37881
5.36111
5.34133
5.31954
5.29578
5.27013
5.24266
5.21342
5.18249
5.14994
5.11584
5.08026
5.04328
5.00497
4.96541
4.92465
4.88278
4.83986
4.79597
4.75117
4.70552
4.6591
4.61197
4.56418
4.5158
4.4669
4.41751
4.36772
4.31757
4.26713
4.21646
4.16563
4.11471
4.06378
4.01293
3.96227
3.91192
3.86202
3.81272
3.76418
3.71655
3.67001
3.62411
3.57864
0.0303009
0.0666056
0.084685
0.0974529
0.107921
0.117163
0.125704
0.133851
0.14181
0.149723
0.157696
0.165811
0.174131
0.18271
0.191591
0.200811
0.210405
0.220406
0.230845
0.241755
0.253172
0.265134
0.277679
0.290847
0.304684
0.319241
0.334576
0.350725
0.367733
0.385649
0.40451
0.424337
0.445161
0.467079
0.490161
0.514466
0.540057
0.56702
0.595387
0.625209
0.656542
0.68943
0.723904
0.759991
0.797718
0.837102
0.878154
0.920881
0.965288
1.01137
1.05913
1.10851
1.1595
1.2121
1.26628
1.32202
1.37929
1.43806
1.49829
1.55994
1.62297
1.68733
1.75298
1.81985
1.88791
1.95709
2.02734