/*--------------------------------*- C++ -*----------------------------------*\
  =========                 |
  \\      /  F ield         | OpenFOAM: The Open Source CFD Toolbox
   \\    /   O peration     | Website:  https://openfoam.org
    \\  /    A nd           | Version:  6
     \\/     M anipulation  |
\*---------------------------------------------------------------------------*/
FoamFile
{
    version     2.0;
    format      ascii;
    class       volScalarField;
    location    "288";
    object      nut;
}
// * * * * * * * * * * * * * * * * * * * * * * * * * * * * * * * * * * * * * //

dimensions      [0 2 -1 0 0 0 0];

internalField   nonuniform List<scalar> 
12225
(
4.14928e-05
3.93401e-05
3.74838e-05
3.54318e-05
3.37853e-05
3.24192e-05
3.15114e-05
3.09109e-05
3.09171e-05
3.10985e-05
3.1563e-05
3.21291e-05
3.3124e-05
3.38813e-05
3.50055e-05
3.60025e-05
3.70531e-05
3.72037e-05
0.00033221
0.000215179
0.00017927
0.000157678
0.000146211
0.000138209
0.000132761
0.000131631
0.000129529
0.000130045
0.000129064
0.000129424
0.000128673
0.000128548
0.000128075
0.000127452
0.000127289
0.000126638
0.000668674
0.000450658
0.00035576
0.00030983
0.000275291
0.000251093
0.000231724
0.000217267
0.000202703
0.000192112
0.000182643
0.000175208
0.000169397
0.000163692
0.000160319
0.000155607
0.000153807
0.000149947
0.000801678
0.000691654
0.000572565
0.000500047
0.000449396
0.000411972
0.000380801
0.000355992
0.000334032
0.000314779
0.000298354
0.000281723
0.000270335
0.000256102
0.000248239
0.000236225
0.000230458
0.000220548
0.000839622
0.000810182
0.000740718
0.0006764
0.000623948
0.000581372
0.00054589
0.000514551
0.000489538
0.000464436
0.000445882
0.000424094
0.000409967
0.000390847
0.000379938
0.000363173
0.000354562
0.000339655
0.000850344
0.000843275
0.000819555
0.00078652
0.000750786
0.000715876
0.00068577
0.000656131
0.000632561
0.000607528
0.000589014
0.000567272
0.000552311
0.000533142
0.000520833
0.000503816
0.0004934
0.000477639
0.000851579
0.000851018
0.0008433
0.000833474
0.000817118
0.000796948
0.000777877
0.000756738
0.000738907
0.000719157
0.000703546
0.000685642
0.000672146
0.000655961
0.00064435
0.000629603
0.000619593
0.000605283
0.000851582
0.000851815
0.000850039
0.00084746
0.000841403
0.000833751
0.000824825
0.000813436
0.000802815
0.000790478
0.000779724
0.000767555
0.000757442
0.000745811
0.000736571
0.00072558
0.000717214
0.000706133
0.000851673
0.00085153
0.000851016
0.000850343
0.000848875
0.000846171
0.000843027
0.000838306
0.000833405
0.000827365
0.000821222
0.000814781
0.00080842
0.000801543
0.000795262
0.000788448
0.000782211
0.00077532
0.000851754
0.000851386
0.000851043
0.000850633
0.000850247
0.000849368
0.000848405
0.000846781
0.000844957
0.000842532
0.000839926
0.000836804
0.0008338
0.000830162
0.000826981
0.000822943
0.00081992
0.000815329
0.000851784
0.000851358
0.000851012
0.000850613
0.000850329
0.000849905
0.000849526
0.000848929
0.000848303
0.000847394
0.000846467
0.000845179
0.000843993
0.000842356
0.000841001
0.00083904
0.000837649
0.000835375
0.000851788
0.000851359
0.000850995
0.000850605
0.000850292
0.000849938
0.000849646
0.00084928
0.000848955
0.000848505
0.000848099
0.000847509
0.000846999
0.000846246
0.000845644
0.000844724
0.000844062
0.000842981
0.000851786
0.000851363
0.000850985
0.000850604
0.000850269
0.000849926
0.00084963
0.000849313
0.000849042
0.000848729
0.000848462
0.000848127
0.000847844
0.000847467
0.000847157
0.000846727
0.000846388
0.000845904
0.000851783
0.000851364
0.000850978
0.000850602
0.000850256
0.000849916
0.000849607
0.0008493
0.000849022
0.000848741
0.000848488
0.000848224
0.000847989
0.000847735
0.000847508
0.000847258
0.000847033
0.000846783
0.000851781
0.000851364
0.000850972
0.000850598
0.000850246
0.000849908
0.000849591
0.000849286
0.000849
0.000848723
0.000848463
0.000848211
0.000847975
0.000847745
0.000847527
0.000847316
0.000847114
0.000846918
0.00085178
0.000851363
0.000850969
0.000850594
0.000850239
0.000849901
0.00084958
0.000849274
0.000848984
0.000848707
0.000848443
0.000848191
0.000847951
0.000847721
0.000847502
0.000847292
0.000847092
0.0008469
0.000851779
0.000851362
0.000850967
0.000850591
0.000850234
0.000849894
0.000849572
0.000849265
0.000848973
0.000848694
0.000848428
0.000848174
0.000847932
0.000847701
0.00084748
0.000847268
0.000847066
0.000846873
0.000851779
0.000851362
0.000850965
0.000850588
0.00085023
0.00084989
0.000849567
0.000849258
0.000848965
0.000848685
0.000848418
0.000848163
0.000847919
0.000847686
0.000847464
0.000847251
0.000847047
0.000846853
0.000851779
0.000851362
0.000850965
0.000850588
0.000850229
0.000849889
0.000849565
0.000849256
0.000848962
0.000848681
0.000848413
0.000848157
0.000847913
0.000847679
0.000847456
0.000847242
0.000847037
0.000846842
0.000851779
0.000851362
0.000850965
0.000850589
0.000850231
0.000849891
0.000849567
0.000849259
0.000848965
0.000848684
0.000848416
0.000848161
0.000847916
0.000847683
0.000847459
0.000847245
0.000847039
0.000846843
0.000851779
0.000851363
0.000850967
0.000850592
0.000850235
0.000849896
0.000849573
0.000849266
0.000848972
0.000848693
0.000848423
0.000848168
0.000847918
0.000847682
0.00084745
0.00084723
0.000847011
0.000846805
0.000851778
0.000851366
0.000850968
0.000850599
0.00085024
0.000849907
0.00084958
0.000849274
0.000848964
0.000848671
0.000848364
0.000848071
0.000847755
0.000847454
0.000847122
0.00084681
0.000846455
0.000846134
0.000851773
0.000851376
0.000850971
0.000850615
0.00085024
0.000849889
0.000849478
0.000849053
0.000848529
0.000847977
0.0008473
0.000846603
0.000845765
0.000844937
0.000843953
0.000843027
0.000841915
0.000840937
0.000851768
0.000851415
0.000850964
0.000850548
0.000849861
0.000848966
0.00084761
0.000845975
0.000843904
0.000841635
0.000838953
0.000836212
0.000833114
0.00083011
0.000826759
0.000823676
0.000820179
0.000817172
0.000851859
0.00085138
0.000850195
0.000848243
0.000844469
0.000839353
0.000832764
0.000825657
0.000817959
0.000810008
0.000801614
0.000793623
0.000785326
0.0007777
0.000769736
0.000762692
0.000755114
0.000748785
0.000852108
0.000847667
0.000839902
0.000827146
0.000808707
0.000789644
0.000769973
0.00075141
0.000733301
0.00071689
0.000700928
0.000686773
0.000672821
0.000660661
0.000648368
0.000637929
0.000626941
0.000618007
0.000843241
0.000822506
0.000775184
0.000726457
0.000684894
0.000649849
0.000618458
0.000592015
0.000568376
0.000548305
0.000529681
0.000513983
0.000498742
0.000486006
0.00047319
0.000462696
0.00045161
0.000442792
0.000795685
0.000668241
0.000570625
0.000509903
0.000465603
0.00043118
0.000404143
0.000382477
0.000364195
0.000349064
0.000335936
0.000325056
0.0003145
0.000306229
0.000297952
0.000291359
0.000284272
0.000278922
0.000501314
0.000348357
0.000292673
0.00025918
0.000236321
0.000221176
0.000211619
0.000203853
0.000198563
0.000195074
0.00019222
0.000190366
0.000188581
0.000187437
0.000186165
0.000185471
0.000184554
0.000184142
7.27385e-05
7.02256e-05
6.79542e-05
6.56138e-05
6.33828e-05
6.12762e-05
5.94944e-05
5.79552e-05
5.67109e-05
5.57033e-05
5.49777e-05
5.44183e-05
5.41098e-05
5.38815e-05
5.38981e-05
5.39333e-05
5.4092e-05
5.43248e-05
1.67408e-07
4.48759e-06
8.36999e-06
1.17802e-05
1.49797e-05
1.85771e-05
2.27235e-05
2.76761e-05
3.35629e-05
4.04044e-05
4.80524e-05
5.63563e-05
6.51031e-05
7.41594e-05
8.33537e-05
9.26001e-05
0.000101761
0.00011077
0.000119507
0.000127896
0.000135821
0.000143159
0.000149798
0.000155554
0.000160332
0.000163916
0.000166305
0.000167382
0.000167392
0.000166222
0.000164367
0.000162374
0.000163688
0.000170483
0.000178867
0.000185505
0.000191707
0.000195567
0.000196452
0.000190588
4.05396e-05
4.62072e-05
4.82779e-05
4.91042e-05
5.02145e-05
5.13786e-05
5.2463e-05
5.36023e-05
5.47028e-05
5.58221e-05
5.69263e-05
5.8034e-05
5.91347e-05
6.02342e-05
6.13291e-05
6.24215e-05
6.35099e-05
6.45953e-05
6.56768e-05
6.6755e-05
6.78292e-05
6.88996e-05
6.99655e-05
7.10272e-05
7.20839e-05
7.31356e-05
7.41817e-05
7.52221e-05
7.62561e-05
7.72834e-05
7.83035e-05
7.93159e-05
8.03201e-05
8.13158e-05
8.23021e-05
8.32788e-05
8.42451e-05
8.52006e-05
8.61446e-05
8.70768e-05
8.79963e-05
8.89028e-05
8.97954e-05
9.06739e-05
9.15374e-05
9.23854e-05
9.32171e-05
9.40321e-05
9.48295e-05
9.56086e-05
9.63683e-05
9.71077e-05
9.78258e-05
9.85212e-05
9.9193e-05
9.98403e-05
0.000100463
0.000101064
0.00010165
0.00010221
0.000102749
0.000103266
0.000103761
0.000104233
0.000104682
0.000105108
0.00010551
0.000105889
0.000106244
0.000106574
0.00010688
0.000107161
0.000107418
0.000107649
0.000107856
0.000108037
0.000108193
0.000108323
0.000108428
0.000108508
0.000108563
0.000108592
0.000108596
0.000108574
0.000108527
0.000108455
0.000108358
0.000108236
0.000108091
0.000107925
0.00010773
0.000107509
0.000107262
0.000106996
0.00010671
0.000106395
0.000106061
0.000105704
0.000105326
0.000104927
0.000104508
0.000104068
0.00010361
0.000103133
0.000102637
0.000102124
0.000101593
0.000101045
0.00010048
9.99004e-05
9.93053e-05
9.86957e-05
9.80723e-05
9.74356e-05
9.67863e-05
9.61251e-05
9.54526e-05
9.47695e-05
9.40767e-05
9.33751e-05
9.26662e-05
9.19536e-05
9.12519e-05
9.06934e-05
9.02806e-05
8.98783e-05
8.94729e-05
8.90636e-05
8.86505e-05
8.82339e-05
8.7814e-05
8.73908e-05
8.69638e-05
8.65319e-05
8.60927e-05
8.56409e-05
8.51658e-05
8.46382e-05
8.39975e-05
8.20776e-05
8.63231e-07
2.42201e-05
5.52979e-05
7.70322e-05
9.0829e-05
9.99226e-05
0.000107136
0.000114125
0.000121715
0.000130196
0.000139547
0.000149611
0.00016017
0.000171022
0.000181985
0.000192907
0.000203649
0.000214084
0.000224077
0.000233488
0.000242153
0.00024989
0.000256499
0.000261768
0.000265508
0.000267567
0.000267905
0.000265467
0.000260417
0.000252879
0.000243144
0.000231772
0.000223261
0.000234506
0.000226053
0.000243452
0.000229187
0.000242835
0.000247248
0.000246381
0.000235947
0.000252874
0.000263643
0.000269874
0.000276942
0.000284244
0.000292077
0.000299896
0.000307947
0.000316064
0.000324307
0.000332628
0.00034104
0.000349529
0.000358098
0.000366746
0.000375473
0.000384279
0.000393166
0.000402134
0.000411185
0.00042032
0.000429539
0.000438843
0.00044823
0.000457701
0.000467253
0.000476887
0.000486599
0.000496388
0.00050625
0.000516182
0.000526181
0.000536242
0.000546362
0.000556535
0.000566756
0.000577019
0.00058732
0.000597652
0.00060801
0.000618386
0.000628776
0.000639172
0.000649569
0.000659961
0.000670341
0.000680705
0.000691047
0.000701362
0.000711643
0.000721883
0.000732067
0.000742176
0.000752174
0.000762003
0.000771554
0.000780644
0.000788985
0.000797305
0.000805466
0.0008135
0.000821393
0.000829142
0.000836742
0.000844186
0.00085147
0.000858587
0.000865532
0.000872301
0.000878889
0.000885291
0.000891503
0.00089752
0.000903339
0.000908956
0.000914367
0.000919568
0.000924557
0.000929332
0.000933889
0.000938226
0.000942341
0.00094623
0.000949894
0.000953331
0.000956542
0.000959526
0.000962271
0.000964802
0.000967169
0.000969229
0.000970923
0.000972418
0.000973845
0.000974954
0.000975838
0.000976495
0.000976924
0.00097713
0.000977114
0.000976879
0.000976426
0.000975763
0.000974891
0.000973814
0.000972537
0.000971063
0.000969397
0.000967543
0.000965506
0.000963292
0.000960904
0.000958349
0.000955632
0.000952759
0.000949734
0.000946562
0.000943246
0.000939788
0.000936178
0.000932355
0.000927998
0.000921902
0.000914546
0.000906778
0.000898834
0.000890788
0.000882668
0.000874489
0.000866261
0.000857987
0.000849667
0.000841293
0.000832842
0.000824262
0.000815401
0.000806019
0.000794602
0.000764463
1.85191e-06
4.07102e-05
8.87947e-05
0.000125284
0.000151638
0.000170659
0.000185013
0.000196828
0.000207584
0.000218169
0.000229016
0.000240256
0.00025185
0.000263682
0.000275612
0.000287501
0.000299213
0.000310617
0.000321576
0.000331944
0.000341557
0.000350238
0.000357801
0.000364067
0.000368887
0.000372157
0.000373837
0.000374995
0.000375996
0.000377504
0.000380539
0.000386308
0.00039477
0.000407285
0.000417702
0.000431309
0.000440506
0.000454872
0.000466581
0.00047769
0.00049028
0.000508491
0.000524628
0.00054014
0.000555928
0.000571866
0.000588071
0.00060441
0.000620934
0.000637599
0.000654416
0.000671372
0.00068847
0.000705706
0.000723082
0.000740598
0.000758257
0.000776058
0.000794004
0.000812094
0.000830329
0.000848711
0.000867239
0.000885912
0.000904728
0.000923683
0.000942774
0.000961997
0.000981345
0.00100081
0.0010204
0.00104009
0.00105987
0.00107975
0.00109971
0.00111974
0.00113982
0.00115996
0.00118013
0.00120033
0.00122055
0.00124076
0.00126097
0.00128115
0.00130129
0.00132139
0.00134142
0.00136137
0.00138123
0.00140099
0.00142061
0.00144008
0.00145937
0.00147844
0.00149723
0.00151567
0.00153369
0.0015512
0.00156827
0.00158511
0.00160167
0.00161795
0.00163394
0.00164962
0.00166498
0.00168001
0.00169471
0.00170905
0.00172302
0.00173663
0.00174985
0.00176268
0.00177511
0.00178713
0.00179873
0.00180991
0.00182066
0.00183097
0.00184083
0.00185025
0.00185921
0.00186771
0.00187574
0.00188331
0.0018904
0.00189702
0.00190317
0.00190884
0.00191404
0.00191878
0.00192316
0.00192697
0.00193002
0.00193265
0.00193502
0.00193685
0.00193819
0.00193906
0.00193946
0.0019394
0.00193888
0.00193791
0.00193649
0.00193464
0.00193237
0.00192967
0.00192656
0.00192304
0.00191913
0.00191484
0.00191017
0.00190513
0.00189974
0.00189401
0.00188795
0.00188156
0.00187486
0.00186787
0.00186058
0.00185301
0.00184513
0.00183686
0.00182786
0.0018172
0.00180513
0.00179234
0.00177915
0.0017657
0.00175205
0.00173825
0.00172431
0.00171025
0.00169606
0.00168175
0.00166725
0.00165246
0.00163711
0.00162048
0.00159976
0.00155549
2.99871e-06
5.35875e-05
0.000114756
0.000162364
0.000197366
0.000223229
0.000242985
0.000258999
0.00027298
0.000286049
0.000298854
0.000311707
0.000324703
0.000337818
0.000350972
0.000364068
0.000377006
0.000389688
0.000402019
0.000413903
0.000425239
0.000435931
0.000445892
0.000455073
0.000463495
0.000471292
0.000478769
0.000486471
0.000494938
0.000504757
0.000516453
0.000530735
0.000547667
0.00056632
0.000585478
0.000605045
0.000624373
0.00064455
0.000664643
0.000685203
0.000706755
0.000729456
0.000751965
0.00077448
0.000797144
0.000819969
0.000842986
0.000866182
0.000889564
0.000913127
0.000936873
0.0009608
0.000984909
0.0010092
0.00103368
0.00105834
0.0010832
0.00110825
0.00113349
0.00115893
0.00118455
0.00121037
0.00123638
0.00126257
0.00128895
0.0013155
0.00134222
0.0013691
0.00139614
0.00142332
0.00145064
0.00147808
0.00150563
0.00153328
0.00156101
0.00158882
0.00161669
0.00164459
0.00167252
0.00170046
0.00172839
0.00175629
0.00178416
0.00181196
0.00183968
0.0018673
0.0018948
0.00192216
0.00194935
0.00197636
0.00200315
0.0020297
0.00205597
0.00208191
0.00210749
0.00213265
0.00215733
0.00218154
0.00220534
0.00222878
0.00225184
0.0022745
0.00229675
0.00231858
0.00233996
0.00236087
0.00238131
0.00240126
0.00242071
0.00243963
0.00245803
0.00247587
0.00249317
0.00250989
0.00252603
0.00254159
0.00255654
0.00257089
0.00258462
0.00259773
0.00261021
0.00262205
0.00263324
0.00264378
0.00265368
0.00266291
0.00267149
0.00267941
0.00268667
0.00269336
0.00269955
0.00270479
0.00270909
0.00271294
0.00271624
0.00271885
0.00272079
0.00272207
0.00272271
0.0027227
0.00272207
0.00272081
0.00271894
0.00271646
0.00271339
0.00270974
0.00270551
0.00270072
0.00269538
0.0026895
0.0026831
0.00267619
0.00266878
0.0026609
0.00265255
0.00264374
0.0026345
0.00262484
0.00261477
0.0026043
0.00259341
0.00258201
0.00256986
0.00255642
0.00254174
0.00252623
0.00251019
0.00249375
0.00247701
0.00246003
0.00244283
0.00242544
0.00240787
0.00239013
0.00237219
0.00235395
0.00233505
0.00231455
0.00228914
0.00224264
4.1641e-06
6.4425e-05
0.000136583
0.000193437
0.000236032
0.000267906
0.000292406
0.000312139
0.000329015
0.000344348
0.000358964
0.000373329
0.000387667
0.000402051
0.000416477
0.000430905
0.000445287
0.000459578
0.000473742
0.000487747
0.000501571
0.000515201
0.000528637
0.000541905
0.000555082
0.000568316
0.000581853
0.000596046
0.00061132
0.000628137
0.000646933
0.000667632
0.000689801
0.000713441
0.000738114
0.000763225
0.000788418
0.000813931
0.000839716
0.000865972
0.000892808
0.000920135
0.000947651
0.000975329
0.0010032
0.00103127
0.00105954
0.00108802
0.00111672
0.00114562
0.00117474
0.00120407
0.00123362
0.00126337
0.00129334
0.00132352
0.00135393
0.00138457
0.00141542
0.0014465
0.0014778
0.00150931
0.00154104
0.00157296
0.00160509
0.00163741
0.0016699
0.00170257
0.0017354
0.00176837
0.00180148
0.00183471
0.00186805
0.00190147
0.00193497
0.00196852
0.00200211
0.00203571
0.00206932
0.0021029
0.00213645
0.00216993
0.00220333
0.00223663
0.00226979
0.00230281
0.00233566
0.0023683
0.00240073
0.0024329
0.00246479
0.00249638
0.00252762
0.00255849
0.00258895
0.00261899
0.00264859
0.00267774
0.00270645
0.00273472
0.00276253
0.00278987
0.00281672
0.00284305
0.00286886
0.00289412
0.00291881
0.00294292
0.00296643
0.00298933
0.00301159
0.00303321
0.00305417
0.00307446
0.00309406
0.00311297
0.00313117
0.00314865
0.0031654
0.00318141
0.00319667
0.00321119
0.00322494
0.00323792
0.00325012
0.00326156
0.00327221
0.00328209
0.00329121
0.00329975
0.00330744
0.00331411
0.00331974
0.00332491
0.00332929
0.00333288
0.00333568
0.00333771
0.00333896
0.00333946
0.00333921
0.00333821
0.00333649
0.00333404
0.00333088
0.00332703
0.00332249
0.00331727
0.0033114
0.00330488
0.00329773
0.00328997
0.0032816
0.00327266
0.00326314
0.00325308
0.00324249
0.00323138
0.00321976
0.00320766
0.00319505
0.00318189
0.003168
0.00315309
0.00313716
0.00312042
0.00310306
0.00308522
0.003067
0.00304846
0.00302964
0.00301057
0.00299128
0.00297178
0.00295204
0.00293196
0.00291121
0.00288884
0.00286161
0.0028175
5.28298e-06
7.35795e-05
0.000155012
0.000219858
0.000269254
0.00030662
0.000335515
0.000358735
0.000378363
0.000395875
0.000412258
0.000428123
0.000443815
0.000459512
0.000475287
0.000491165
0.000507152
0.000523253
0.000539481
0.000555857
0.000572415
0.000589195
0.000606248
0.000623635
0.000641437
0.000659759
0.000678742
0.000698568
0.000719447
0.000741599
0.000765205
0.000790309
0.000816808
0.000844194
0.000872106
0.000900533
0.000929565
0.000959071
0.000988987
0.00101934
0.00105014
0.0010813
0.00111275
0.00114444
0.00117637
0.00120853
0.00124091
0.00127352
0.00130635
0.00133941
0.00137269
0.00140621
0.00143995
0.00147394
0.00150816
0.00154262
0.00157731
0.00161222
0.00164735
0.0016827
0.00171826
0.00175403
0.00179001
0.00182618
0.00186254
0.00189908
0.00193579
0.00197265
0.00200966
0.0020468
0.00208406
0.00212142
0.00215886
0.00219638
0.00223395
0.00227155
0.00230917
0.00234678
0.00238437
0.00242192
0.0024594
0.00249679
0.00253407
0.00257122
0.00260822
0.00264504
0.00268165
0.00271804
0.00275417
0.00279002
0.00282557
0.00286078
0.00289562
0.00293008
0.00296412
0.00299774
0.0030309
0.0030636
0.00309583
0.00312757
0.00315881
0.00318954
0.00321972
0.00324934
0.00327839
0.00330683
0.00333465
0.00336183
0.00338836
0.00341421
0.00343938
0.00346384
0.00348757
0.00351057
0.00353283
0.00355432
0.00357503
0.00359495
0.00361408
0.0036324
0.0036499
0.00366657
0.00368241
0.0036974
0.00371155
0.00372484
0.00373728
0.00374886
0.00375969
0.00376984
0.00377892
0.00378694
0.00379398
0.00380042
0.00380597
0.00381065
0.00381447
0.00381743
0.00381955
0.00382083
0.00382128
0.00382091
0.00381974
0.00381777
0.00381501
0.00381147
0.00380718
0.00380214
0.00379636
0.00378986
0.00378266
0.00377478
0.00376621
0.003757
0.00374714
0.00373667
0.00372559
0.00371393
0.00370169
0.0036889
0.00367555
0.0036616
0.00364696
0.00363148
0.00361513
0.00359801
0.00358025
0.00356196
0.00354323
0.00352412
0.00350468
0.00348496
0.00346499
0.00344479
0.00342438
0.00340366
0.00338238
0.00335964
0.00333258
0.00329259
6.3131e-06
8.11809e-05
0.000170373
0.000242171
0.000297695
0.000340153
0.00037322
0.000399818
0.000422166
0.000441876
0.000460071
0.000477493
0.000494605
0.000511682
0.000528877
0.000546277
0.000563936
0.000581897
0.000600204
0.000618907
0.000638064
0.000657737
0.00067799
0.000698891
0.000720504
0.000742893
0.000766125
0.000790269
0.0008154
0.000841586
0.00086887
0.000897242
0.000926606
0.000956784
0.000987625
0.00101906
0.00105105
0.00108354
0.00111647
0.00114984
0.00118361
0.00121774
0.00125219
0.00128691
0.0013219
0.00135713
0.0013926
0.0014283
0.00146423
0.00150038
0.00153676
0.00157337
0.0016102
0.00164726
0.00168455
0.00172206
0.00175979
0.00179773
0.00183588
0.00187424
0.0019128
0.00195155
0.0019905
0.00202963
0.00206893
0.0021084
0.00214802
0.00218778
0.00222767
0.00226768
0.00230779
0.00234798
0.00238825
0.00242858
0.00246894
0.00250932
0.00254971
0.00259008
0.00263041
0.00267068
0.00271087
0.00275097
0.00279094
0.00283077
0.00287043
0.0029099
0.00294915
0.00298817
0.00302691
0.00306537
0.00310352
0.00314132
0.00317876
0.00321581
0.00325245
0.00328865
0.0033244
0.00335968
0.00339448
0.00342878
0.00346255
0.00349578
0.00352845
0.00356053
0.00359201
0.00362285
0.00365305
0.00368259
0.00371143
0.00373957
0.00376699
0.00379367
0.00381959
0.00384475
0.00386911
0.00389267
0.00391542
0.00393734
0.00395842
0.00397864
0.00399801
0.0040165
0.00403411
0.00405084
0.00406666
0.00408159
0.00409561
0.00410874
0.00412117
0.00413264
0.00414312
0.00415245
0.00416092
0.0041686
0.00417536
0.0041812
0.00418612
0.00419014
0.00419326
0.0041955
0.00419687
0.00419736
0.004197
0.00419579
0.00419375
0.00419088
0.0041872
0.00418273
0.00417747
0.00417144
0.00416466
0.00415714
0.0041489
0.00413995
0.00413032
0.00412002
0.00410906
0.00409746
0.00408525
0.00407243
0.00405901
0.00404497
0.00403026
0.00401481
0.00399858
0.00398163
0.00396404
0.0039459
0.00392727
0.00390823
0.00388881
0.00386909
0.00384911
0.0038289
0.00380851
0.0037879
0.00376685
0.00374461
0.00371877
0.00368291
7.22414e-06
8.73348e-05
0.000182909
0.000260709
0.000321732
0.000368911
0.000405955
0.000435859
0.000460932
0.000482893
0.000502977
0.000522038
0.000540644
0.00055916
0.000577814
0.000596747
0.000616058
0.000635818
0.000656087
0.000676923
0.000698386
0.000720536
0.000743432
0.000767129
0.000791701
0.000817161
0.000843526
0.00087081
0.00089902
0.000928152
0.000958191
0.000989101
0.00102082
0.00105326
0.00108633
0.00111999
0.00115419
0.00118887
0.00122399
0.00125954
0.00129547
0.00133176
0.00136837
0.00140527
0.00144245
0.00147988
0.00151754
0.00155542
0.00159351
0.00163182
0.00167034
0.00170907
0.00174801
0.00178716
0.0018265
0.00186605
0.0019058
0.00194574
0.00198588
0.0020262
0.0020667
0.00210738
0.00214823
0.00218925
0.00223043
0.00227175
0.00231321
0.0023548
0.00239651
0.00243833
0.00248024
0.00252223
0.00256428
0.00260639
0.00264853
0.00269069
0.00273285
0.002775
0.00281711
0.00285916
0.00290114
0.00294302
0.00298479
0.00302642
0.00306789
0.00310918
0.00315026
0.00319111
0.0032317
0.00327202
0.00331203
0.00335172
0.00339105
0.00343001
0.00346857
0.00350671
0.00354441
0.00358164
0.0036184
0.00365465
0.00369037
0.00372555
0.00376015
0.00379417
0.00382757
0.00386033
0.00389244
0.00392387
0.00395459
0.0039846
0.00401387
0.00404239
0.00407013
0.00409708
0.00412322
0.00414854
0.00417302
0.00419666
0.00421942
0.00424131
0.00426231
0.00428242
0.00430161
0.00431988
0.00433723
0.00435365
0.00436912
0.00438375
0.00439758
0.00441034
0.00442216
0.00443283
0.00444268
0.00445162
0.0044596
0.00446663
0.00447271
0.00447787
0.0044821
0.00448541
0.00448782
0.00448932
0.00448995
0.00448969
0.00448857
0.00448659
0.00448378
0.00448013
0.00447568
0.00447042
0.00446437
0.00445756
0.00444999
0.00444169
0.00443266
0.00442293
0.0044125
0.00440141
0.00438966
0.00437728
0.00436426
0.0043506
0.00433628
0.00432127
0.00430555
0.00428914
0.0042721
0.00425448
0.00423636
0.00421779
0.00419883
0.00417954
0.00415998
0.00414022
0.0041203
0.00410024
0.00407989
0.00405862
0.00403452
0.00400322
7.99765e-06
9.21496e-05
0.000192837
0.000275742
0.000341642
0.000393166
0.000433982
0.000467106
0.000494899
0.000519153
0.000541192
0.00056196
0.000582115
0.0006021
0.000622206
0.000642625
0.000663497
0.000684934
0.000706992
0.000729714
0.000753149
0.00077734
0.000802326
0.000828129
0.000854771
0.000882318
0.000910786
0.000940162
0.000970426
0.00100155
0.00103349
0.00106622
0.00109967
0.00113379
0.00116852
0.00120381
0.00123962
0.00127591
0.00131262
0.00134973
0.00138718
0.00142488
0.00146286
0.00150113
0.00153969
0.0015785
0.00161753
0.00165675
0.00169616
0.00173575
0.00177553
0.00181549
0.00185562
0.00189594
0.00193643
0.00197709
0.00201793
0.00205894
0.00210012
0.00214147
0.00218298
0.00222465
0.00226648
0.00230846
0.00235059
0.00239286
0.00243527
0.0024778
0.00252045
0.00256321
0.00260607
0.00264902
0.00269205
0.00273513
0.00277827
0.00282145
0.00286464
0.00290784
0.00295102
0.00299417
0.00303727
0.00308031
0.00312325
0.00316608
0.00320877
0.00325132
0.00329368
0.00333584
0.00337778
0.00341946
0.00346087
0.00350198
0.00354277
0.00358321
0.00362327
0.00366294
0.00370219
0.00374099
0.00377932
0.00381716
0.00385449
0.00389128
0.0039275
0.00396314
0.00399817
0.00403256
0.0040663
0.00409936
0.00413172
0.00416335
0.00419424
0.00422437
0.00425372
0.00428227
0.00431
0.0043369
0.00436295
0.00438813
0.00441244
0.00443585
0.00445836
0.00447996
0.00450063
0.00452036
0.00453914
0.00455698
0.00457385
0.00458991
0.004605
0.0046191
0.00463223
0.00464427
0.00465546
0.00466567
0.0046749
0.00468315
0.00469045
0.0046968
0.0047022
0.00470667
0.00471022
0.00471285
0.00471457
0.0047154
0.00471535
0.00471442
0.00471264
0.00471001
0.00470655
0.00470228
0.00469719
0.00469132
0.00468467
0.00467727
0.00466912
0.00466024
0.00465065
0.00464037
0.0046294
0.00461778
0.00460549
0.00459256
0.00457896
0.0045647
0.00454976
0.00453415
0.00451792
0.00450111
0.00448377
0.00446596
0.00444774
0.00442918
0.00441034
0.0043913
0.00437215
0.00435292
0.00433353
0.00431349
0.00429128
0.00426437
8.62342e-06
9.57311e-05
0.000200348
0.000287598
0.000357661
0.00041315
0.000457507
0.00049373
0.000524201
0.000550755
0.000574779
0.000597285
0.000619005
0.000640472
0.000662002
0.000683787
0.000705945
0.000728517
0.000751721
0.000775658
0.000800384
0.00082594
0.000852357
0.000879666
0.000907907
0.00093706
0.000967112
0.00099802
0.00102975
0.00106226
0.00109551
0.00112946
0.00116405
0.00119924
0.00123498
0.00127123
0.00130793
0.00134505
0.00138257
0.00142044
0.00145865
0.0014972
0.00153604
0.00157512
0.00161436
0.0016538
0.0016934
0.00173315
0.00177304
0.00181307
0.00185324
0.00189355
0.00193401
0.00197462
0.00201538
0.00205628
0.00209734
0.00213855
0.00217991
0.00222142
0.00226309
0.00230492
0.0023469
0.00238904
0.00243134
0.00247378
0.00251638
0.00255911
0.00260199
0.00264501
0.00268815
0.00273141
0.00277477
0.00281824
0.0028618
0.00290543
0.00294913
0.00299287
0.00303664
0.00308042
0.00312421
0.00316796
0.00321168
0.00325533
0.00329889
0.00334234
0.00338566
0.00342882
0.0034718
0.00351457
0.0035571
0.00359938
0.00364137
0.00368304
0.00372438
0.00376535
0.00380593
0.00384609
0.0038858
0.00392505
0.00396379
0.00400202
0.00403969
0.0040768
0.0041133
0.00414917
0.0041844
0.00421896
0.00425281
0.00428595
0.00431835
0.00434999
0.00438084
0.00441089
0.00444012
0.00446851
0.00449604
0.0045227
0.00454848
0.00457336
0.00459732
0.00462035
0.00464245
0.00466359
0.00468378
0.004703
0.00472128
0.00473866
0.00475505
0.00477049
0.00478494
0.00479839
0.00481093
0.00482244
0.00483294
0.00484246
0.00485102
0.00485861
0.00486525
0.00487095
0.00487571
0.00487955
0.00488248
0.0048845
0.00488563
0.00488588
0.00488526
0.00488379
0.00488148
0.00487834
0.00487438
0.00486963
0.00486409
0.00485779
0.00485072
0.00484292
0.00483439
0.00482514
0.0048152
0.00480458
0.00479329
0.00478133
0.00476871
0.00475543
0.00474149
0.00472689
0.00471168
0.00469587
0.00467953
0.00466269
0.00464543
0.0046278
0.0046099
0.0045918
0.0045736
0.00455538
0.0045371
0.00451839
0.00449805
0.00447473
9.09986e-06
9.8206e-05
0.000205685
0.000296501
0.000370089
0.000429113
0.000476737
0.000515894
0.000548948
0.000577758
0.00060377
0.000627974
0.000651079
0.000673536
0.000695888
0.000718483
0.000741551
0.000765291
0.000789795
0.000815056
0.0008411
0.000867956
0.000895647
0.000924187
0.00095357
0.000983759
0.00101472
0.00104645
0.00107892
0.00111208
0.00114591
0.00118035
0.00121537
0.00125092
0.00128695
0.00132342
0.0013603
0.00139755
0.00143513
0.00147302
0.00151118
0.00154959
0.00158822
0.00162704
0.00166615
0.00170546
0.00174487
0.00178433
0.00182385
0.00186344
0.00190314
0.00194294
0.00198285
0.00202288
0.00206304
0.00210333
0.00214377
0.00218435
0.00222509
0.00226598
0.00230705
0.00234829
0.00238971
0.00243132
0.00247311
0.0025151
0.00255727
0.00259964
0.00264219
0.00268494
0.00272787
0.00277097
0.00281425
0.00285769
0.00290128
0.00294502
0.00298888
0.00303286
0.00307693
0.00312109
0.0031653
0.00320956
0.00325383
0.00329811
0.00334235
0.00338655
0.00343067
0.00347468
0.00351857
0.0035623
0.00360584
0.00364918
0.00369226
0.00373508
0.00377759
0.00381978
0.0038616
0.00390304
0.00394406
0.00398463
0.00402472
0.00406432
0.00410338
0.00414189
0.0041798
0.00421711
0.00425378
0.00428978
0.00432509
0.00435969
0.00439355
0.00442665
0.00445897
0.00449049
0.00452119
0.00455104
0.00458004
0.00460816
0.00463538
0.0046617
0.0046871
0.00471157
0.00473509
0.00475765
0.00477924
0.00479987
0.00481953
0.00483823
0.00485596
0.00487277
0.00488859
0.00490343
0.00491739
0.00493022
0.00494204
0.00495287
0.00496274
0.00497164
0.00497959
0.00498658
0.00499264
0.00499777
0.00500199
0.00500529
0.00500771
0.00500924
0.0050099
0.00500971
0.00500868
0.00500681
0.00500413
0.00500065
0.00499637
0.00499133
0.00498552
0.00497896
0.00497167
0.00496366
0.00495494
0.00494553
0.00493544
0.00492467
0.00491323
0.00490113
0.00488837
0.00487497
0.00486094
0.00484632
0.00483114
0.00481545
0.00479932
0.0047828
0.00476599
0.00474899
0.00473189
0.0047148
0.00469772
0.00468036
0.00466181
0.00464151
9.43274e-06
9.97135e-05
0.000209085
0.000302673
0.000379198
0.000441313
0.000491893
0.000533788
0.000569257
0.000600046
0.000627443
0.000652767
0.000676921
0.000700626
0.000724304
0.000748182
0.000772462
0.000797279
0.000822659
0.000848706
0.000875475
0.000902994
0.000931277
0.000960327
0.00099013
0.00102066
0.0010519
0.00108379
0.00111632
0.00114945
0.00118315
0.00121738
0.00125209
0.00128726
0.00132283
0.00135875
0.00139501
0.00143156
0.00146838
0.00150544
0.0015427
0.00158009
0.0016177
0.00165559
0.00169379
0.00173201
0.00177029
0.00180858
0.00184682
0.00188507
0.00192338
0.00196177