/*--------------------------------*- C++ -*----------------------------------*\
  =========                 |
  \\      /  F ield         | OpenFOAM: The Open Source CFD Toolbox
   \\    /   O peration     | Website:  https://openfoam.org
    \\  /    A nd           | Version:  6
     \\/     M anipulation  |
\*---------------------------------------------------------------------------*/
FoamFile
{
    version     2.0;
    format      ascii;
    class       volScalarField;
    location    "288";
    object      p;
}
// * * * * * * * * * * * * * * * * * * * * * * * * * * * * * * * * * * * * * //

dimensions      [0 2 -2 0 0 0 0];

internalField   nonuniform List<scalar> 
12225
(
-1.31218
-3.5008
-4.60091
-4.92172
-5.10321
-5.27253
-5.40443
-5.50008
-5.57733
-5.64553
-5.70656
-5.76276
-5.81431
-5.86309
-5.90963
-5.95048
-6.00167
-5.98533
-4.47561
-5.2441
-5.40465
-5.31257
-5.30025
-5.36839
-5.44631
-5.51255
-5.57279
-5.63102
-5.68665
-5.73886
-5.78845
-5.83581
-5.88206
-5.92434
-5.97294
-6.01125
-4.87674
-4.86178
-4.98923
-5.06775
-5.16285
-5.28329
-5.3909
-5.47621
-5.54865
-5.61477
-5.67587
-5.73204
-5.78481
-5.83463
-5.8831
-5.92835
-5.97924
-6.02459
-4.7548
-4.69793
-4.93963
-5.09809
-5.20003
-5.30649
-5.40455
-5.48505
-5.55438
-5.61821
-5.67771
-5.7329
-5.78501
-5.83446
-5.88267
-5.92895
-5.97847
-6.02674
-4.74445
-4.76892
-4.99708
-5.13878
-5.22259
-5.31489
-5.40646
-5.48461
-5.55272
-5.61564
-5.67462
-5.72968
-5.7818
-5.8315
-5.87997
-5.92719
-5.97608
-6.02564
-4.80238
-4.85137
-5.02574
-5.14977
-5.23147
-5.31954
-5.40791
-5.48483
-5.55232
-5.61466
-5.67323
-5.72812
-5.78015
-5.82991
-5.87838
-5.92585
-5.97406
-6.02304
-4.86269
-4.90697
-5.04224
-5.15869
-5.24261
-5.32697
-5.41119
-5.4862
-5.55276
-5.61435
-5.67231
-5.72686
-5.77864
-5.82826
-5.87652
-5.92381
-5.97119
-6.01878
-4.91618
-4.95386
-5.0639
-5.17231
-5.25546
-5.33527
-5.41496
-5.48777
-5.55324
-5.61396
-5.67122
-5.72532
-5.77676
-5.82611
-5.874
-5.92082
-5.9672
-6.01314
-4.96586
-4.99902
-5.09001
-5.18807
-5.26829
-5.34384
-5.41924
-5.48966
-5.55382
-5.61354
-5.66998
-5.7235
-5.77446
-5.82337
-5.87071
-5.91682
-5.96205
-6.00629
-5.01284
-5.04212
-5.1177
-5.205
-5.28132
-5.35302
-5.42433
-5.49207
-5.55467
-5.61321
-5.66869
-5.72145
-5.77178
-5.82006
-5.86668
-5.91188
-5.95587
-5.99842
-5.05706
-5.08257
-5.14582
-5.22306
-5.29484
-5.36279
-5.43018
-5.49506
-5.55586
-5.61306
-5.66742
-5.71926
-5.76878
-5.81628
-5.86202
-5.90618
-5.94886
-5.98981
-5.09499
-5.11735
-5.17158
-5.24047
-5.30766
-5.37215
-5.43609
-5.49828
-5.55725
-5.61309
-5.6663
-5.71716
-5.76581
-5.81245
-5.85728
-5.90039
-5.94186
-5.98142
-5.12999
-5.14972
-5.19657
-5.258
-5.32054
-5.38161
-5.44229
-5.50181
-5.55887
-5.61325
-5.66523
-5.71502
-5.76271
-5.80841
-5.85226
-5.8943
-5.93458
-5.97284
-5.16663
-5.18383
-5.22387
-5.27791
-5.33526
-5.39246
-5.44962
-5.50614
-5.56094
-5.61356
-5.66405
-5.71252
-5.759
-5.80354
-5.8462
-5.887
-5.92595
-5.96285
-5.20366
-5.21845
-5.25246
-5.29955
-5.35144
-5.40443
-5.45788
-5.51118
-5.56339
-5.61394
-5.66266
-5.70955
-5.75459
-5.79774
-5.83903
-5.87843
-5.91596
-5.95145
-5.2391
-5.25173
-5.28066
-5.3216
-5.36815
-5.41683
-5.46652
-5.51651
-5.56595
-5.61418
-5.66091
-5.706
-5.74937
-5.79095
-5.83071
-5.86861
-5.90466
-5.93875
-5.27005
-5.28092
-5.30586
-5.34177
-5.38361
-5.42827
-5.47443
-5.52126
-5.56793
-5.61377
-5.6584
-5.70157
-5.74317
-5.78308
-5.82124
-5.85761
-5.89219
-5.92491
-5.29213
-5.30177
-5.324
-5.35642
-5.39481
-5.43636
-5.47969
-5.52391
-5.5682
-5.6119
-5.65456
-5.69593
-5.73581
-5.77411
-5.81073
-5.84565
-5.87885
-5.91031
-5.29846
-5.3076
-5.32879
-5.35988
-5.39689
-5.43706
-5.47898
-5.52176
-5.56463
-5.60694
-5.64823
-5.68823
-5.72678
-5.76378
-5.79915
-5.83287
-5.86494
-5.89539
-5.28197
-5.29173
-5.31429
-5.3473
-5.38621
-5.42779
-5.4706
-5.51395
-5.55713
-5.59948
-5.64059
-5.68025
-5.71834
-5.75478
-5.78955
-5.82265
-5.85409
-5.88393
-5.25488
-5.26566
-5.29089
-5.32783
-5.37051
-5.4149
-5.45984
-5.5049
-5.54935
-5.59249
-5.63403
-5.67389
-5.71202
-5.74837
-5.78296
-5.81581
-5.84698
-5.87654
-5.21949
-5.23129
-5.2606
-5.30411
-5.35229
-5.40015
-5.44781
-5.49537
-5.54173
-5.58612
-5.62843
-5.66877
-5.70716
-5.7436
-5.77816
-5.81091
-5.84193
-5.87132
-5.17882
-5.1907
-5.22511
-5.2783
-5.33375
-5.38558
-5.43632
-5.4866
-5.53493
-5.58062
-5.62384
-5.66481
-5.7036
-5.74024
-5.77487
-5.80762
-5.83858
-5.86791
-5.13503
-5.14599
-5.18772
-5.25207
-5.31414
-5.3707
-5.42617
-5.47987
-5.52995
-5.57659
-5.62051
-5.66199
-5.70106
-5.73781
-5.77246
-5.80517
-5.83606
-5.86529
-5.08805
-5.09353
-5.15615
-5.23428
-5.29612
-5.35425
-5.41524
-5.47344
-5.52579
-5.57366
-5.61849
-5.66056
-5.69991
-5.73675
-5.77138
-5.80402
-5.83485
-5.86404
-5.0447
-5.00836
-5.11785
-5.22874
-5.29089
-5.34605
-5.40812
-5.4677
-5.52075
-5.56929
-5.61482
-5.65744
-5.69712
-5.73417
-5.76891
-5.80161
-5.83247
-5.86168
-5.0589
-4.89993
-5.02881
-5.18281
-5.27282
-5.34406
-5.41284
-5.4736
-5.52623
-5.57433
-5.61943
-5.66151
-5.70062
-5.7371
-5.7713
-5.80351
-5.83396
-5.86289
-5.18208
-5.00168
-5.01581
-5.08786
-5.17614
-5.27523
-5.36578
-5.4394
-5.50094
-5.5559
-5.60603
-5.65163
-5.69325
-5.73156
-5.76708
-5.80025
-5.83153
-5.86155
-4.88945
-5.48052
-5.56931
-5.44498
-5.39055
-5.41759
-5.46442
-5.50751
-5.5489
-5.59091
-5.63222
-5.67138
-5.70816
-5.74271
-5.7751
-5.80549
-5.83409
-5.86268
-1.90012
-3.66341
-4.66806
-4.96712
-5.1162
-5.2597
-5.3736
-5.4544
-5.51846
-5.57516
-5.62624
-5.67211
-5.7136
-5.75166
-5.78678
-5.81877
-5.84747
-5.87113
-6.73093
-6.73095
-6.73131
-6.73206
-6.73304
-6.73417
-6.73547
-6.73696
-6.73868
-6.74067
-6.74299
-6.74568
-6.74879
-6.75237
-6.75647
-6.76114
-6.76641
-6.77233
-6.77894
-6.78627
-6.79438
-6.80328
-6.81302
-6.82364
-6.8352
-6.8478
-6.8616
-6.87672
-6.89302
-6.91002
-6.92721
-6.94395
-6.95977
-6.97589
-6.99564
-7.01952
-7.04571
-7.07381
-7.10275
-7.13165
-7.16077
-7.18711
-7.20849
-7.23183
-7.25899
-7.28691
-7.31573
-7.34511
-7.37489
-7.40493
-7.4351
-7.4653
-7.49541
-7.52533
-7.55497
-7.58423
-7.613
-7.64118
-7.66866
-7.69532
-7.72104
-7.7457
-7.76916
-7.7913
-7.81196
-7.83099
-7.84824
-7.86356
-7.87676
-7.88768
-7.89614
-7.90196
-7.90495
-7.90493
-7.9017
-7.89508
-7.88485
-7.87083
-7.85281
-7.83061
-7.80402
-7.77286
-7.73692
-7.69602
-7.64998
-7.59863
-7.54177
-7.47925
-7.4109
-7.33657
-7.25614
-7.16947
-7.07643
-6.97689
-6.87079
-6.75823
-6.6393
-6.51382
-6.38119
-6.24128
-6.09434
-5.94043
-5.77959
-5.61184
-5.43722
-5.25577
-5.06754
-4.87263
-4.67111
-4.4631
-4.24871
-4.02808
-3.80137
-3.56873
-3.33035
-3.08641
-2.83711
-2.58268
-2.32335
-2.05935
-1.79094
-1.5184
-1.24197
-0.961937
-0.678578
-0.392195
-0.103089
0.188425
0.482048
0.777478
1.07441
1.37248
1.67137
1.97075
2.27033
2.56978
2.8688
3.16705
3.46423
3.76003
4.05417
4.34635
4.6363
4.92376
5.20847
5.49018
5.76865
6.04367
6.31501
6.58247
6.84588
7.10504
7.3598
7.61001
7.85552
8.09622
8.33199
8.56274
8.78837
9.00881
9.22401
9.43393
9.63862
9.8381
10.0321
10.2205
10.4033
10.5804
10.7519
10.9178
11.0781
11.2329
11.3823
11.5262
11.665
11.7991
11.9297
12.0583
12.1965
12.3411
-6.72989
-6.73015
-6.73064
-6.73132
-6.73199
-6.73258
-6.7332
-6.73399
-6.73506
-6.73647
-6.73825
-6.74045
-6.74309
-6.7462
-6.74981
-6.75396
-6.75869
-6.76403
-6.77002
-6.7767
-6.78409
-6.79223
-6.80115
-6.81084
-6.82135
-6.83264
-6.8447
-6.85735
-6.87042
-6.88392
-6.89806
-6.9133
-6.93082
-6.95206
-6.97471
-6.99598
-7.01688
-7.03739
-7.05846
-7.08193
-7.10656
-7.13429
-7.16934
-7.20463
-7.23529
-7.26527
-7.2951
-7.32498
-7.35495
-7.38501
-7.41509
-7.44513
-7.47506
-7.50479
-7.53425
-7.56332
-7.59193
-7.61997
-7.64732
-7.6739
-7.69956
-7.72419
-7.74767
-7.76985
-7.79059
-7.80975
-7.82717
-7.84269
-7.85614
-7.86736
-7.87616
-7.88237
-7.8858
-7.88627
-7.88358
-7.87753
-7.86794
-7.85461
-7.83733
-7.81592
-7.79017
-7.7599
-7.72491
-7.68501
-7.64003
-7.58978
-7.5341
-7.4728
-7.40574
-7.33277
-7.25375
-7.16857
-7.07708
-6.97916
-6.8747
-6.76356
-6.64555
-6.52052
-6.3887
-6.2502
-6.10484
-5.95258
-5.79342
-5.62737
-5.45446
-5.27472
-5.08821
-4.89501
-4.6952
-4.48889
-4.27619
-4.05724
-3.83218
-3.60117
-3.36439
-3.12203
-2.87428
-2.62135
-2.36349
-2.10092
-1.8339
-1.56268
-1.28754
-1.00873
-0.726547
-0.441277
-0.153227
0.137294
0.429984
0.724551
1.02069
1.31804
1.61627
1.91507
2.21414
2.51317
2.81182
3.10979
3.40677
3.70244
3.99652
4.28872
4.57876
4.86639
5.15133
5.43334
5.71219
5.98764
6.25949
6.52752
6.79155
7.05139
7.3069
7.55789
7.80425
8.04585
8.28256
8.51428
8.74094
8.96247
9.17884
9.38999
9.5957
9.79566
9.98991
10.1786
10.3617
10.5391
10.7111
10.8774
11.0383
11.1937
11.3436
11.4883
11.628
11.7632
11.8955
12.0259
12.167
12.3062
-6.72625
-6.72713
-6.7284
-6.7295
-6.7302
-6.73064
-6.73103
-6.73155
-6.73234
-6.73347
-6.73501
-6.73697
-6.7394
-6.74232
-6.74575
-6.74973
-6.75429
-6.75946
-6.76528
-6.77177
-6.77897
-6.7869
-6.79558
-6.80502
-6.81524
-6.82625
-6.83804
-6.85052
-6.86364
-6.87747
-6.89232
-6.90872
-6.92732
-6.94842
-6.97099
-6.99374
-7.01658
-7.0396
-7.0629
-7.08658
-7.11038
-7.13529
-7.16293
-7.19192
-7.22074
-7.24978
-7.279
-7.30837
-7.33784
-7.36738
-7.39693
-7.42644
-7.45584
-7.48506
-7.51401
-7.54261
-7.57077
-7.59839
-7.62537
-7.65159
-7.67695
-7.70133
-7.72458
-7.74659
-7.76721
-7.78629
-7.80368
-7.81922
-7.83275
-7.8441
-7.85309
-7.85955
-7.86329
-7.86412
-7.86185
-7.8563
-7.84726
-7.83455
-7.81796
-7.7973
-7.77237
-7.74298
-7.70894
-7.67007
-7.62617
-7.57707
-7.5226
-7.46258
-7.39686
-7.32528
-7.24772
-7.16402
-7.07408
-6.97777
-6.875
-6.76565
-6.64952
-6.52648
-6.3966
-6.25997
-6.11653
-5.96623
-5.80907
-5.64504
-5.47417
-5.29649
-5.11205
-4.92093
-4.72321
-4.51899
-4.30838
-4.0915
-3.86851
-3.63956
-3.40482
-3.16447
-2.91871
-2.66775
-2.41181
-2.15113
-1.88596
-1.61655
-1.34316
-1.06605
-0.785515
-0.501837
-0.215321
0.0737276
0.365007
0.658232
0.953089
1.24924
1.54634
1.84409
2.14219
2.44032
2.73816
3.03539
3.3317
3.6268
3.92038
4.21216
4.50186
4.78922
5.07397
5.35587
5.63468
5.91016
6.1821
6.4503
6.71456
6.97469
7.23054
7.48194
7.72874
7.97084
8.20808
8.44038
8.66763
8.88973
9.1066
9.31822
9.52455
9.7255
9.92103
10.1111
10.2955
10.4743
10.6476
10.8153
10.9775
11.1342
11.2855
11.4317
11.573
11.7101
11.8447
11.977
12.1203
12.2476
-6.72023
-6.72186
-6.72432
-6.72635
-6.72763
-6.72847
-6.72914
-6.72983
-6.7307
-6.73184
-6.73334
-6.73526
-6.73762
-6.74047
-6.74383
-6.74774
-6.75222
-6.7573
-6.76302
-6.7694
-6.77646
-6.78423
-6.79273
-6.80197
-6.81198
-6.82278
-6.83438
-6.84678
-6.85998
-6.87405
-6.88921
-6.90577
-6.92405
-6.9441
-6.96554
-6.98781
-7.01062
-7.03395
-7.05786
-7.08229
-7.10715
-7.13263
-7.159
-7.18616
-7.21383
-7.24195
-7.27041
-7.29913
-7.32802
-7.35703
-7.38609
-7.41513
-7.44409
-7.47289
-7.50146
-7.5297
-7.55754
-7.58486
-7.61159
-7.63759
-7.66277
-7.687
-7.71015
-7.7321
-7.75269
-7.77179
-7.78925
-7.8049
-7.81858
-7.83012
-7.83936
-7.8461
-7.85017
-7.85137
-7.84953
-7.84445
-7.83593
-7.82378
-7.8078
-7.7878
-7.76358
-7.73495
-7.70171
-7.66368
-7.62067
-7.57251
-7.51902
-7.46002
-7.39536
-7.32488
-7.24844
-7.16591
-7.07714
-6.98201
-6.88044
-6.77229
-6.65746
-6.53584
-6.40746
-6.2723
-6.13035
-5.98156
-5.82592
-5.66344
-5.49412
-5.31801
-5.13516
-4.94563
-4.74949
-4.54686
-4.33784
-4.12255
-3.90113
-3.67374
-3.44055
-3.20173
-2.95748
-2.70801
-2.45354
-2.1943
-1.93053
-1.66249
-1.39043
-1.11462
-0.835337
-0.552869
-0.26752
0.0204077
0.31062
0.602831
0.896715
1.19193
1.48817
1.78513
2.0825
2.37994
2.67715
2.97381
3.26962
3.56427
3.85747
4.14893
4.43836
4.72552
5.01013
5.29193
5.5707
5.8462
6.11821
6.38653
6.65095
6.9113
7.1674
7.4191
7.66624
7.90869
8.14632
8.37904
8.60676
8.82937
9.04679
9.25898
9.4659
9.66757
9.86392
10.0548
10.2402
10.4199
10.5942
10.7628
10.9259
11.0836
11.2359
11.3831
11.5255
11.6637
11.7994
11.9315
12.0731
12.1865
-6.71319
-6.71562
-6.71953
-6.72273
-6.72484
-6.7263
-6.72748
-6.72858
-6.72976
-6.73116
-6.73286
-6.73494
-6.73745
-6.74042
-6.7439
-6.74792
-6.75251
-6.75769
-6.7635
-6.76997
-6.77713
-6.78499
-6.79358
-6.80293
-6.81307
-6.82402
-6.83582
-6.84849
-6.86208
-6.87664
-6.89231
-6.90923
-6.92752
-6.94717
-6.968
-6.98975
-7.0122
-7.03525
-7.05891
-7.08315
-7.10799
-7.13347
-7.15959
-7.18627
-7.21341
-7.24096
-7.26886
-7.29705
-7.32545
-7.35399
-7.38262
-7.41127
-7.43986
-7.46832
-7.49657
-7.52453
-7.55212
-7.57922
-7.60575
-7.6316
-7.65665
-7.68079
-7.70389
-7.7258
-7.74641
-7.76555
-7.78308
-7.79884
-7.81266
-7.82438
-7.83382
-7.84081
-7.84515
-7.84667
-7.84517
-7.84046
-7.83234
-7.82063
-7.80512
-7.78561
-7.76192
-7.73385
-7.7012
-7.66379
-7.62143
-7.57394
-7.52115
-7.46288
-7.39898
-7.32928
-7.25364
-7.17193
-7.084
-6.98974
-6.88904
-6.78179
-6.6679
-6.54729
-6.41994
-6.28582
-6.1449
-5.99715
-5.84256
-5.68113
-5.51288
-5.33785
-5.15607
-4.96762
-4.77257
-4.57101
-4.36307
-4.14885
-3.9285
-3.70218
-3.47003
-3.23225
-2.98903
-2.74057
-2.48709
-2.22882
-1.96601
-1.69889
-1.42773
-1.15279
-0.874346
-0.592694
-0.308128
-0.0209523
0.268555
0.560091
0.853324
1.14792
1.44359
1.74004
2.03692
2.33393
2.63074
2.92705
3.22255
3.51693
3.8099
4.10117
4.39048
4.67754
4.9621
5.2439
5.5227
5.79827
6.07039
6.33886
6.60347
6.86403
7.12038
7.37235
7.61981
7.86261
8.10063
8.33376
8.56191
8.78498
9.00288
9.21554
9.42291
9.62497
9.82171
10.013
10.1988
10.3791
10.5538
10.7229
10.8866
11.0448
11.1976
11.3453
11.4883
11.6268
11.7624
11.893
12.0312
12.1317
-6.70657
-6.70977
-6.71504
-6.71942
-6.72241
-6.72459
-6.72638
-6.728
-6.72963
-6.73142
-6.73348
-6.73588
-6.73869
-6.74195
-6.74571
-6.75
-6.75485
-6.7603
-6.76638
-6.77312
-6.78055
-6.78869
-6.79758
-6.80725
-6.81772
-6.82904
-6.84122
-6.85431
-6.86836
-6.88339
-6.89948
-6.91669
-6.93504
-6.95452
-6.97502
-6.99641
-7.01856
-7.04138
-7.0648
-7.08879
-7.11336
-7.13851
-7.16424
-7.19048
-7.21718
-7.24429
-7.27175
-7.29951
-7.3275
-7.35567
-7.38396
-7.41228
-7.44058
-7.46878
-7.4968
-7.52456
-7.55197
-7.57893
-7.60534
-7.63111
-7.6561
-7.68021
-7.7033
-7.72525
-7.74591
-7.76514
-7.78277
-7.79867
-7.81265
-7.82455
-7.8342
-7.84141
-7.846
-7.84779
-7.84658
-7.84218
-7.8344
-7.82303
-7.80789
-7.78877
-7.76549
-7.73783
-7.70562
-7.66867
-7.62678
-7.57978
-7.52749
-7.46973
-7.40635
-7.3372
-7.26212
-7.18097
-7.09363
-6.99998
-6.89989
-6.79327
-6.68003
-6.56011
-6.43345
-6.30003
-6.15981
-6.01276
-5.85887
-5.69815
-5.53062
-5.3563
-5.17524
-4.98751
-4.79318
-4.59236
-4.38514
-4.17165
-3.95202
-3.72641
-3.49498
-3.25791
-3.01538
-2.76762
-2.51482
-2.25723
-1.99507
-1.72859
-1.45805
-1.18372
-0.905865
-0.624784
-0.340772
-0.0541224
0.234886
0.525936
0.818695
1.11285
1.40811
1.70419
2.00073
2.29742
2.59394
2.88999
3.18525
3.47943
3.77224
4.06338
4.35259
4.63958
4.9241
5.20589
5.48472
5.76035
6.03255
6.30113
6.56587
6.8266
7.08315
7.33536
7.58306
7.82614
8.06446
8.29791
8.52638
8.74978
8.96802
9.18102
9.38871
9.59105
9.78804
9.97961
10.1657
10.3463
10.5213
10.6908
10.8548
11.0133
11.1665
11.3145
11.4575
11.5959
11.7308
11.8594
11.9941
12.0833
-6.70145
-6.70536
-6.71174
-6.71714
-6.72097
-6.72386
-6.72628
-6.72846
-6.7306
-6.73286
-6.73535
-6.73816
-6.74135
-6.745
-6.74912
-6.75378
-6.759
-6.76482
-6.77127
-6.77838
-6.78618
-6.79471
-6.80399
-6.81405
-6.82492
-6.83664
-6.84923
-6.86272
-6.87714
-6.89252
-6.90889
-6.92626
-6.94463
-6.96399
-6.98426
-7.00536
-7.02723
-7.04979
-7.07298
-7.09677
-7.12112
-7.14603
-7.17146
-7.19739
-7.22376
-7.25054
-7.27768
-7.30513
-7.33283
-7.36073
-7.38876
-7.41686
-7.44496
-7.47299
-7.50086
-7.52851
-7.55583
-7.58273
-7.60911
-7.63486
-7.65987
-7.68402
-7.70717
-7.7292
-7.74996
-7.76931
-7.78709
-7.80314
-7.8173
-7.82939
-7.83924
-7.84667
-7.85149
-7.85352
-7.85256
-7.84842
-7.8409
-7.82981
-7.81495
-7.79612
-7.77313
-7.74578
-7.71388
-7.67723
-7.63566
-7.58898
-7.53702
-7.4796
-7.41656
-7.34775
-7.27302
-7.19224
-7.10526
-7.01198
-6.91228
-6.80605
-6.69323
-6.57373
-6.44751
-6.31452
-6.17473
-6.02811
-5.87466
-5.71438
-5.54729
-5.37341
-5.19281
-5.00553
-4.81167
-4.6113
-4.40455
-4.19152
-3.97237
-3.74722
-3.51626
-3.27966
-3.03761
-2.7903
-2.53797
-2.28084
-2.01913
-1.75309
-1.48299
-1.20908
-0.931645
-0.650971
-0.367358
-0.0810841
0.207554
0.498235
0.790632
1.08445
1.37942
1.6752
1.97147
2.26791
2.56419
2.86003
3.1551
3.44911
3.74176
4.03278
4.32188
4.60879
4.89326
5.17502
5.45383
5.72947
6.0017
6.27034
6.53517
6.79601
7.05268
7.30504
7.55291
7.79617
8.03469
8.26835
8.49704
8.72068
8.93916
9.1524
9.36032
9.5629
9.7601
9.95188
10.1382
10.319
10.4943
10.664
10.8282
10.987
11.1403
11.2884
11.4314
11.5693
11.7032
11.8295
11.9611
12.0403
-6.69858
-6.70303
-6.71022
-6.71641
-6.72094
-6.72448
-6.72749
-6.73022
-6.73287
-6.7356
-6.73854
-6.74178
-6.74539
-6.74944
-6.75398
-6.75904
-6.76466
-6.77088
-6.77773
-6.78525
-6.79345
-6.80238
-6.81206
-6.82251
-6.83378
-6.84587
-6.85882
-6.87264
-6.88735
-6.90298
-6.91952
-6.93699
-6.95536
-6.97462
-6.99473
-7.01563
-7.03727
-7.0596
-7.08258
-7.10616
-7.13032
-7.15503
-7.18026
-7.20597
-7.23213
-7.2587
-7.28563
-7.31288
-7.3404
-7.36813
-7.39601
-7.42399
-7.45199
-7.47994
-7.50776
-7.53538
-7.56269
-7.58961
-7.61603
-7.64185
-7.66694
-7.69118
-7.71445
-7.73662
-7.75752
-7.77703
-7.79497
-7.8112
-7.82554
-7.83782
-7.84787
-7.85549
-7.86051
-7.86274
-7.86198
-7.85805
-7.85073
-7.83984
-7.82518
-7.80655
-7.78375
-7.75658
-7.72487
-7.68841
-7.64702
-7.60052
-7.54874
-7.4915
-7.42863
-7.36
-7.28545
-7.20485
-7.11805
-7.02495
-6.92544
-6.81941
-6.70679
-6.58751
-6.4615
-6.32873
-6.18916
-6.04276
-5.88953
-5.72948
-5.56262
-5.38898
-5.20862
-5.02159
-4.82798
-4.62787
-4.42138
-4.20863
-3.98975
-3.76489
-3.53421
-3.2979
-3.05614
-2.80914
-2.55711
-2.30027
-2.03886
-1.77312
-1.50332
-1.2297
-0.952558
-0.672175
-0.388844
-0.102844
0.185514
0.47591
0.768034
1.0616
1.35633
1.65189
1.94794
2.24416
2.54025
2.83589
3.13079
3.42465
3.71716
4.00805
4.29704
4.58386
4.86824
5.14994
5.42871
5.70432
5.97656
6.24521
6.51007
6.77096
7.02771
7.28014
7.52812
7.77149
8.01014
8.24393
8.47278
8.69657
8.91521
9.12862
9.33673
9.53948
9.73685
9.9288
10.1153
10.2963
10.4717
10.6416
10.806
10.9649
11.1183
11.2662
11.409
11.5462
11.6789
11.8029
11.9316
12.0022
-6.6983
-6.70309
-6.71077
-6.71749
-6.72257
-6.72664
-6.73015
-6.73336
-6.73647
-6.73964
-6.743
-6.74665
-6.75067
-6.75511
-6.76003
-6.76547
-6.77147
-6.77807
-6.7853
-6.79319
-6.80177
-6.81107
-6.8211
-6.83191
-6.8435
-6.8559
-6.86913
-6.8832
-6.89812
-6.91391
-6.93056
-6.94807
-6.96643
-6.98562
-7.00561
-7.02636
-7.04783
-7.06999
-7.0928
-7.11623
-7.14025
-7.16481
-7.18991
-7.21549
-7.24152
-7.26797
-7.29479
-7.32194
-7.34938
-7.37704
-7.40488
-7.43282
-7.46082
-7.48878
-7.51664
-7.54431
-7.57169
-7.5987
-7.62523
-7.65116
-7.67639
-7.70078
-7.72421
-7.74654
-7.76762
-7.7873
-7.80542
-7.82183
-7.83635
-7.8488
-7.85902
-7.86681
-7.872
-7.87438
-7.87377
-7.86997
-7.86278
-7.85201
-7.83746
-7.81893
-7.79622
-7.76914
-7.7375
-7.7011
-7.65977
-7.61332
-7.56157
-7.50437
-7.44154
-7.37293
-7.29841
-7.21783
-7.13105
-7.03798
-6.93849
-6.8325
-6.71991
-6.60067
-6.4747
-6.34198
-6.20246
-6.05612
-5.90294
-5.74295
-5.57616
-5.4026
-5.22232
-5.03538
-4.84187
-4.64188
-4.4355
-4.22288
-4.00414
-3.77942
-3.5489
-3.31275
-3.07117
-2.82435
-2.5725
-2.31586
-2.05464
-1.7891
-1.51949
-1.24608
-0.96915
-0.688979
-0.405851
-0.120064
0.168071
0.458241
0.75015
1.04351
1.33805
1.63341
1.92926
2.2253
2.52121
2.81668
3.11141
3.4051
3.69747
3.98823
4.27709
4.5638
4.84809
5.12971
5.40841
5.68397
5.95617
6.22479
6.48964
6.75054
7.0073
7.25977
7.50779
7.75122
7.98994
8.22382
8.45276
8.67665
8.8954
9.10893
9.31716
9.52004
9.71754
9.90961
10.0962
10.2773
10.4529
10.6229
10.7873
10.9462
11.0996
11.2474
11.3897
11.5262
11.6575
11.7791
11.9053
11.9684
-6.70063
-6.70558
-6.71345
-6.72046
-6.7259
-6.73035
-6.73426
-6.73786
-6.74135
-6.74489
-6.7486
-6.75259
-6.75695
-6.76172
-6.76697
-6.77274
-6.77907
-6.78598
-6.79353
-6.80172
-6.8106
-6.82019
-6.8305
-6.84157
-6.8534
-6.86603
-6.87945
-6.89368
-6.90874
-6.92462
-6.94133
-6.95886
-6.9772
-6.99632
-7.01622
-7.03687
-7.05823
-7.08028
-7.10298
-7.12631
-7.15024
-7.17473
-7.19976
-7.22529
-7.25128
-7.2777
-7.3045
-7.33165
-7.35909
-7.38678
-7.41465
-7.44266
-7.47073
-7.49878
-7.52675
-7.55453
-7.58206
-7.60921
-7.6359
-7.662
-7.6874
-7.71197
-7.73557
-7.75808
-7.77933
-7.79919
-7.81748
-7.83405
-7.84872
-7.86132
-7.87167
-7.87958
-7.88487
-7.88734
-7.8868
-7.88306
-7.87592
-7.86518
-7.85064
-7.83211
-7.80939
-7.78228
-7.75059
-7.71414
-7.67274
-7.62621
-7.57438
-7.51708
-7.45415
-7.38544
-7.31081
-7.23012
-7.14323
-7.05005
-6.95045
-6.84435
-6.73167
-6.61233
-6.48628
-6.35346
-6.21386
-6.06744
-5.91421
-5.75415
-5.58731
-5.41371
-5.2334
-5.04645
-4.85293
-4.65294
-4.44659
-4.234
-4.0153
-3.79064
-3.56019
-3.32412
-3.08263
-2.83592
-2.58419
-2.32767
-2.06658
-1.80119
-1.53173
-1.25848
-0.98171
-0.701706
-0.418748
-0.133147
0.154793
0.44477
0.736486
1.02966
1.32401
1.61918
1.91484
2.21068
2.5064
2.80169
3.09624
3.38977
3.68197
3.97258
4.2613
4.54788
4.83204
5.11355
5.39215
5.66762
5.93974
6.20829
6.47309
6.73395
6.99069
7.24314
7.49116
7.73461
7.97335
8.20727
8.43625
8.6602
8.87901
9.09261
9.30092
9.50388
9.70147
9.89362
10.0803
10.2615
10.4371
10.6072
10.7717
10.9305
11.0837
11.2313
11.373
11.5086
11.6386
11.758
11.8819
11.9386
-6.7054
-6.71033
-6.71813
-6.72519
-6.7308
-6.7355
-6.73966
-6.74354
-6.7473
-6.75111
-6.7551
-6.75936
-6.76396
-6.76898
-6.77447
-6.78047
-6.78703
-6.79417
-6.80192
-6.81032
-6.8194
-6.82916
-6.83965
-6.85088
-6.86286
-6.87561
-6.88915
-6.90348
-6.91861
-6.93454
-6.95127
-6.9688
-6.98712
-7.00621
-7.02606
-7.04665
-7.06795
-7.08994
-7.11259
-7.13588
-7.15979
-7.18427
-7.2093
-7.23485
-7.26088
-7.28734
-7.31421
-7.34143
-7.36896
-7.39675
-7.42474
-7.45287
-7.48108
-7.50929
-7.53741
-7.56537
-7.59306
-7.6204
-7.64727
-7.67355
-7.69913
-7.72388
-7.74766
-7.77033
-7.79174
-7.81174
-7.83016
-7.84684
-7.86161
-7.87429
-7.8847
-7.89265
-7.89797
-7.90044
-7.89989
-7.89611
-7.88892
-7.8781
-7.86347
-7.84482
-7.82197
-7.79472
-7.76287
-7.72625
-7.68466
-7.63794
-7.58591
-7.5284
-7.46525
-7.39632
-7.32147
-7.24055
-7.15344
-7.06004
-6.96023
-6.85392
-6.74103
-6.62149
-6.49525
-6.36225
-6.22248
-6.07589
-5.9225
-5.76231
-5.59534
-5.42162
-5.24121
-5.05417
-4.86059
-4.66054
-4.45415
-4.24153
-4.02283
-3.79818
-3.56776
-3.33174
-3.09031
-2.84367
-2.59202
-2.3356
-2.07462
-1.80935
-1.54003
-1.26692
-0.990307
-0.710465
-0.427689
-0.142279
0.14546
0.435238
0.726748
1.01972
1.31387
1.60883
1.90427
2.1999
2.49541
2.79049
3.08484
3.37817
3.67018
3.9606
4.24914
4.53555
4.81955
5.1009
5.37936
5.6547
5.9267
6.19515
6.45985
6.72062
6.97729
7.22969
7.47766
7.72108
7.9598
8.19371
8.42269
8.64665
8.86549
9.07912
9.28747
9.49049
9.68812
9.88033
10.0671
10.2483
10.424
10.594
10.7585
10.9172
11.0703
11.2174
11.3586
11.4933
11.6218
11.7391
11.8608
11.9122
-6.71227
-6.71705
-6.72456
-6.73147
-6.73708
-6.74185
-6.74614
-6.75017
-6.75409
-6.75807
-6.76221
-6.76661
-6.77136
-6.77652
-6.78213
-6.78825
-6.7949
-6.80214
-6.80999
-6.81848
-6.82764
-6.83749
-6.84805
-6.85935
-6.87139
-6.8842
-6.89779
-6.91216
-6.92732
-6.94326
-6.96
-6.97753
-6.99583
-7.0149
-7.03473
-7.0553
-7.07659
-7.09858
-7.12125
-7.14456
-7.1685
-7.19303
-7.21812
-7.24374
-7.26985
-7.29642
-7.32341
-7.35077
-7.37846
-7.40641
-7.43457
-7.46287
-7.49125
-7.51964
-7.54795
-7.57609
-7.60397
-7.63148
-7.65852
-7.68497
-7.71071
-7.7356
-7.7595
-7.78228
-7.80379
-7.82386
-7.84233
-7.85904
-7.87382
-7.88648
-7.89686
-7.90475
-7.90998
-7.91235
-7.91167
-7.90774
-7.90037
-7.88936
-7.87452
-7.85564
-7.83255
-7.80503
-7.77291
-7.73601
-7.69413
-7.6471
-7.59476
-7.53694
-7.47348
-7.40423
-7.32906
-7.24783
-7.16042
-7.06672
-6.96661
-6.86002
-6.74685
-6.62705
-6.50055
-6.36731
-6.2273
-6.0805
-5.92691
-5.76653
-5.59939
-5.42552
-5.24498
-5.05783
-4.86414
-4.66403
-4.45758
-4.24493
-4.0262
-3.80156
-3.57116
-3.33519
-3.09382
-2.84726
-2.59571
-2.3394
-2.07856
-1.81342
-1.54426
-1.27133
-0.994896
-0.715251
-0.432687
-0.147499
0.140019
0.429564
0.720833
1.01358
1.30748
1.60218
1.89736
2.19273
2.48798
2.78281
3.07691
3.36999
3.66176
3.95194
4.24026
4.52645
4.81024
5.09138
5.36965
5.64481
5.91663
6.18492
6.44948
6.71013
6.96668
7.21897
7.46686
7.7102
7.94886
8.18272
8.41167
8.6356
8.85442
9.06805
9.27642
9.47945
9.67711
9.86934
10.0561
10.2373
10.413
10.5831
10.7474
10.9061
11.0588
11.2056
11.3461
11.4798
11.6069
11.7222
11.8419
11.8888
-6.72086
-6.72536
-6.73242
-6.73901
-6.74446
-6.74917
-6.75345
-6.75748
-6.76142
-6.76542
-6.76959
-6.77401
-6.77877
-6.78391
-6.78952
-6.79562
-6.80226
-6.80948
-6.81732
-6.8258
-6.83494
-6.84478
-6.85534
-6.86663
-6.87866
-6.89147
-6.90504
-6.9194
-6.93455
-6.95049
-6.96722
-6.98474
-7.00304
-7.02212
-7.04196
-7.06255
-7.08387
-7.1059
-7.12861
-7.15198
-7.17598
-7.20059
-7.22578
-7.25151
-7.27776
-7.30449
-7.33164
-7.35918
-7.38705
-7.41518
-7.44352
-7.472
-7.50055
-7.5291
-7.55757
-7.58586
-7.61388
-7.64152
-7.66867
-7.69521
-7.72102
-7.74597
-7.7699
-7.79269
-7.81417
-7.8342
-7.85261
-7.86923
-7.88389
-7.89641
-7.90661
-7.91431
-7.91932
-7.92145
-7.92051
-7.91631
-7.90864
-7.89731
-7.88214
-7.86292
-7.83946
-7.81158
-7.77909
-7.74179
-7.69953
-7.65211
-7.59938
-7.54116
-7.47731
-7.40768
-7.33213
-7.25054
-7.16277
-7.06871
-6.96827
-6.86135
-6.74787
-6.62777
-6.50099
-6.36749
-6.22724
-6.08021
-5.92642
-5.76586
-5.59855
-5.42454
-5.24387
-5.05663
-4.86287
-4.6627
-4.45622
-4.24356
-4.02485
-3.80025
-3.56991
-3.33402
-3.09276
-2.84632
-2.59491
-2.33876
-2.07809
-1.81315
-1.5442
-1.27149
-0.995299
-0.715917
-0.433625
-0.148711
0.138528
0.427771
0.718745
1.0112
1.30479
1.59915
1.89401
2.18906
2.48398
2.77849
3.07227
3.36504
3.65651
3.9464
4.23442
4.52032
4.80384
5.08473
5.36274
5.63766
5.90926
6.17734
6.4417
6.70216
6.95855
7.21069
7.45844
7.70166
7.94022
8.17399
8.40286
8.62673
8.84551
9.05911
9.26745
9.47048
9.66814
9.86037
10.0471
10.2284
10.404
10.574
10.7383
10.8967
11.0492
11.1955
11.3354
11.4681
11.5938
11.7072
11.825
11.8683
-6.73075
-6.73491
-6.7414
-6.74754
-6.7527
-6.75719
-6.76129
-6.76517
-6.76898
-6.77284
-6.77687
-6.78115
-6.78576
-6.79078
-6.79625
-6.80222
-6.80874
-6.81584
-6.82356
-6.83193
-6.84097
-6.85072
-6.86119
-6.8724
-6.88437
-6.89711
-6.91063
-6.92495
-6.94007
-6.95599
-6.97271
-6.99023
-7.00854
-7.02763
-7.04749
-7.0681
-7.08945
-7.11152
-7.13429
-7.15773
-7.18182
-7.20654
-7.23186
-7.25774
-7.28414
-7.31103
-7.33834
-7.36604
-7.39405
-7.42232
-7.45078
-7.47937
-7.50802
-7.53665
-7.56519
-7.59353
-7.62158
-7.64923
-7.67636
-7.70287
-7.72861
-7.75345
-7.77727
-7.7999
-7.82121
-7.84103
-7.85921
-7.87557
-7.88995
-7.90217
-7.91205
-7.91941
-7.92406
-7.92581
-7.92447
-7.91986
-7.91177
-7.90001
-7.8844
-7.86474
-7.84083
-7.8125
-7.77955
-7.74181
-7.69909
-7.65123
-7.59806
-7.53941
-7.47513
-7.4051
-7.32916
-7.24718
-7.15904
-7.06463
-6.96384
-6.8566
-6.74283
-6.62245
-6.49541
-6.36167
-6.2212
-6.07398
-5.92002
-5.75931
-5.59188
-5.41777
-5.23704
-5.04974
-4.85596
-4.6558
-4.44935
-4.23675
-4.01813
-3.79364
-3.56343
-3.3277
-3.08661
-2.84038
-2.58919
-2.33328
-2.07287
-1.80822
-1.53956
-1.26716
-0.991312
-0.712281
-0.430337
-0.145776
0.141083
0.429933
0.720538
1.01262
1.30579
1.59973
1.89418
2.18881
2.48333
2.77743
3.07082
3.3632
3.65429
3.9438
4.23146
4.517
4.80018
5.08073
5.35842
5.63303
5.90435
6.17215
6.43626
6.69648
6.95264
7.20459
7.45216
7.69521
7.93362
8.16726
8.39602
8.6198
8.8385
9.05204
9.26034
9.46334
9.66098
9.8532
10.0399
10.2212
10.3968
10.5667
10.7309
10.8891
11.0413
11.1871
11.3262
11.4579
11.5824
11.694
11.81
11.8504
-6.7416
-6.74538
-6.75124
-6.75683
-6.76154
-6.76565
-6.7694
-6.77295
-6.77643
-6.77998
-6.7837
-6.78769
-6.79203
-6.79677
-6.80198
-6.80771
-6.814
-6.82088
-6.8284
-6.83658
-6.84545
-6.85503
-6.86536
-6.87644
-6.8883
-6.90094
-6.91438
-6.92862
-6.94367
-6.95953
-6.97621
-6.99369
-7.01197
-7.03105
-7.05091
-7.07153
-7.09289
-7.115
-7.13782
-7.16135
-7.18554
-7.21037
-7.23578
-7.26176
-7.28824
-7.3152
-7.34257
-7.3703
-7.39833
-7.4266
-7.45504
-7.48359
-7.51217
-7.54072
-7.56915
-7.59736
-7.62525
-7.65272
-7.67964
-7.7059
-7.73138
-7.75593
-7.77942
-7.80171
-7.82265
-7.84209
-7.85986
-7.8758
-7.88974
-7.9015
-7.91091
-7.91779
-7.92195
-7.9232
-7.92136
-7.91624
-7.90764
-7.89537
-7.87925
-7.85908
-7.83467
-7.80584
-7.7724
-7.73417
-7.69098
-7.64266
-7.58904
-7.52996
-7.46528
-7.39485
-7.31853
-7.23619
-7.14771
-7.05298
-6.95191
-6.8444
-6.73038
-6.60977
-6.48254
-6.34862
-6.20801
-6.06068
-5.90662
-5.74585
-5.57839
-5.40428
-5.22357
-5.03632
-4.84263
-4.64257
-4.43626
-4.22383
-4.0054
-3.78112
-3.55117
-3.3157
-3.07491
-2.82898
-2.57814
-2.32258
-2.06256
-1.7983
-1.53006
-1.2581
-0.982709
-0.704122
-0.422636
-0.138552
0.147802
0.436156
0.726297
1.01788
1.31051
1.60393
1.89786
2.19198
2.48598
2.77958
3.07248
3.36437
3.65498
3.94403
4.23123
4.51633
4.79908
5.07922
5.35651
5.63075
5.9017
6.16916
6.43295
6.69287
6.94876
7.20045
7.44779
7.69063
7.92885
8.16233
8.39094
8.6146
8.8332
9.04665
9.25489
9.45784
9.65544
9.84763
10.0343
10.2155
10.3911
10.561
10.725
10.883
11.0349
11.1802
11.3186
11.4493
11.5725
11.6825
11.7966
11.835
-6.75359
-6.75699
-6.76222
-6.76717
-6.77128
-6.77481
-6.77798
-6.78096
-6.78389
-6.78691
-6.79014
-6.79365
-6.79754
-6.80186
-6.80668
-6.81204
-6.81798
-6.82455
-6.83177
-6.83967
-6.84828
-6.85762
-6.86771
-6.87858
-6.89023
-6.90269
-6.91595
-6.93004
-6.94494
-6.96066
-6.9772
-6.99455
-7.01272
-7.03171
-7.05149
-7.07206
-7.0934
-7.11547
-7.13827
-7.16176
-7.1859
-7.21067
-7.23601
-7.26189
-7.28825
-7.31506
-7.34226
-7.3698
-7.39761
-7.42563
-7.45381
-7.48208
-7.51037
-7.53861
-7.5667
-7.59455
-7.62204
-7.64908
-7.67554
-7.70133
-7.7263
-7.75033
-7.77329
-7.79503
-7.81541
-7.83428
-7.85147
-7.86682
-7.88017
-7.89134
-7.90016
-7.90645
-7.91002
-7.91069
-7.90827
-7.90258
-7.89342
-7.8806
-7.86394
-7.84325
-7.81833
-7.789
-7.75508
-7.71639
-7.67276
-7.62403
-7.57002
-7.51058
-7.44555
-7.37479
-7.29817
-7.21555
-7.12682
-7.03186
-6.93059
-6.82291
-6.70874
-6.58803
-6.46071
-6.32675
-6.18611
-6.03879
-5.88478
-5.72408
-5.55672
-5.38275
-5.2022
-5.01515
-4.82168
-4.62188
-4.41586
-4.20374
-3.98566
-3.76176
-3.53221
-3.29717
-3.05682
-2.81137
-2.56102
-2.30598
-2.0465
-1.7828
-1.51515
-1.24379
-0.968979
-0.690991
-0.410125
-0.126688
0.159011
0.446749
0.736284
1.0272
1.31915
1.6119
1.90518
2.19865
2.49202