/*--------------------------------*- C++ -*----------------------------------*\
  =========                 |
  \\      /  F ield         | OpenFOAM: The Open Source CFD Toolbox
   \\    /   O peration     | Website:  https://openfoam.org
    \\  /    A nd           | Version:  6
     \\/     M anipulation  |
\*---------------------------------------------------------------------------*/
FoamFile
{
    version     2.0;
    format      ascii;
    class       surfaceScalarField;
    location    "288";
    object      phi;
}
// * * * * * * * * * * * * * * * * * * * * * * * * * * * * * * * * * * * * * //

dimensions      [0 3 -1 0 0 0 0];

internalField   nonuniform List<scalar> 
24170
(
3.12901e-06
5.93999e-08
3.04663e-06
8.23766e-08
2.97354e-06
7.30878e-08
2.90492e-06
6.86259e-08
2.8406e-06
6.43183e-08
2.78329e-06
5.73074e-08
2.73398e-06
4.93059e-08
2.69205e-06
4.19293e-08
2.65641e-06
3.56439e-08
2.626e-06
3.04074e-08
2.59986e-06
2.61458e-08
2.57713e-06
2.27207e-08
2.55719e-06
1.9947e-08
2.53945e-06
1.77403e-08
2.52359e-06
1.58583e-08
2.50873e-06
1.48575e-08
2.49523e-06
1.35002e-08
1.73815e-08
2.47785e-06
3.45306e-06
2.35847e-08
3.45701e-06
7.84353e-08
3.45055e-06
7.95467e-08
3.4391e-06
8.00787e-08
3.42432e-06
7.90906e-08
3.40708e-06
7.45518e-08
3.38787e-06
6.8513e-08
3.36736e-06
6.24406e-08
3.34623e-06
5.67726e-08
3.32507e-06
5.15665e-08
3.30437e-06
4.68484e-08
3.2844e-06
4.26905e-08
3.26536e-06
3.89842e-08
3.2473e-06
3.58023e-08
3.23031e-06
3.28516e-08
3.21426e-06
3.0902e-08
3.19953e-06
2.82307e-08
2.9108e-08
3.1878e-06
3.66816e-06
1.79409e-08
3.6792e-06
6.73916e-08
3.68543e-06
7.33156e-08
3.68947e-06
7.60393e-08
3.69108e-06
7.74859e-08
3.69012e-06
7.55093e-08
3.687e-06
7.16384e-08
3.68217e-06
6.72671e-08
3.67603e-06
6.29055e-08
3.66892e-06
5.86813e-08
3.6611e-06
5.46658e-08
3.65283e-06
5.09587e-08
3.6443e-06
4.75192e-08
3.63567e-06
4.44341e-08
3.62699e-06
4.1524e-08
3.61864e-06
3.92544e-08
3.61016e-06
3.67124e-08
3.55834e-08
3.60368e-06
3.92585e-06
1.74797e-08
3.93592e-06
5.73192e-08
3.94258e-06
6.66607e-08
3.94812e-06
7.04933e-08
3.95255e-06
7.30642e-08
3.9555e-06
7.25517e-08
3.95719e-06
6.9957e-08
3.95783e-06
6.66184e-08
3.95764e-06
6.31003e-08
3.95675e-06
5.95711e-08
3.9553e-06
5.61159e-08
3.95341e-06
5.28442e-08
3.95118e-06
4.97492e-08
3.94871e-06
4.69017e-08
3.94603e-06
4.42039e-08
3.9434e-06
4.18893e-08
3.94057e-06
3.95413e-08
3.7621e-08
3.93853e-06
4.2082e-06
1.64063e-08
4.21599e-06
4.95308e-08
4.22169e-06
6.0958e-08
4.2268e-06
6.53818e-08
4.23156e-06
6.83078e-08
4.23554e-06
6.85699e-08
4.23872e-06
6.67765e-08
4.24121e-06
6.41261e-08
4.24312e-06
6.11901e-08
4.24454e-06
5.81539e-08
4.24554e-06
5.51114e-08
4.24622e-06
5.21685e-08
4.24662e-06
4.93454e-08
4.24683e-06
4.66941e-08
4.24686e-06
4.41678e-08
4.24688e-06
4.18702e-08
4.24682e-06
3.96028e-08
3.7431e-08
4.24701e-06
4.51071e-06
1.47824e-08
4.51689e-06
4.33545e-08
4.52214e-06
5.57047e-08
4.52696e-06
6.05585e-08
4.53168e-06
6.3587e-08
4.53594e-06
6.43106e-08
4.53963e-06
6.309e-08
4.54281e-06
6.09493e-08
4.54555e-06
5.84487e-08
4.54792e-06
5.57855e-08
4.54996e-06
5.30638e-08
4.55175e-06
5.03819e-08
4.55332e-06
4.77781e-08
4.55472e-06
4.52897e-08
4.55599e-06
4.28988e-08
4.55722e-06
4.06414e-08
4.5584e-06
3.84163e-08
3.61827e-08
4.55965e-06
4.83433e-06
1.31711e-08
4.83963e-06
3.8053e-08
4.84476e-06
5.05748e-08
4.84947e-06
5.58479e-08
4.85411e-06
5.89451e-08
4.85844e-06
5.99822e-08
4.86233e-06
5.92045e-08
4.86581e-06
5.74684e-08
4.86894e-06
5.53148e-08
4.87177e-06
5.29522e-08
4.87434e-06
5.04929e-08
4.8767e-06
4.80287e-08
4.87887e-06
4.56087e-08
4.88089e-06
4.32618e-08
4.88281e-06
4.09845e-08
4.88467e-06
3.87821e-08
4.88648e-06
3.65987e-08
3.43811e-08
4.88828e-06
5.18105e-06
1.17034e-08
5.18576e-06
3.33432e-08
5.19076e-06
4.55676e-08
5.19542e-06
5.11897e-08
5.20002e-06
5.43506e-08
5.20439e-06
5.56122e-08
5.2084e-06
5.51955e-08
5.21206e-06
5.38026e-08
5.21543e-06
5.19443e-08
5.21854e-06
4.98399e-08
5.22143e-06
4.76072e-08
5.22412e-06
4.53345e-08
5.22666e-06
4.30757e-08
5.22906e-06
4.08575e-08
5.23136e-06
3.86834e-08
5.23359e-06
3.65484e-08
5.23577e-06
3.44196e-08
3.22581e-08
5.23789e-06
5.55269e-06
1.03469e-08
5.55689e-06
2.91431e-08
5.5617e-06
4.07555e-08
5.56632e-06
4.65743e-08
5.57089e-06
4.97776e-08
5.57531e-06
5.11966e-08
5.57943e-06
5.10782e-08
5.58324e-06
4.99877e-08
5.58679e-06
4.83933e-08
5.59011e-06
4.65218e-08
5.59322e-06
4.44947e-08
5.59616e-06
4.23985e-08
5.59894e-06
4.02892e-08
5.6016e-06
3.81944e-08
5.60417e-06
3.61219e-08
5.60665e-06
3.40671e-08
5.60906e-06
3.20098e-08
2.99319e-08
5.61138e-06
5.95104e-06
9.08264e-09
5.95479e-06
2.53923e-08
5.95937e-06
3.61778e-08
5.96393e-06
4.20128e-08
5.96848e-06
4.52225e-08
5.97294e-06
4.67425e-08
5.97715e-06
4.68637e-08
5.9811e-06
4.60391e-08
5.98481e-06
4.46844e-08
5.9883e-06
4.30282e-08
5.9916e-06
4.11939e-08
5.99473e-06
3.92664e-08
5.99772e-06
3.73023e-08
6.00058e-06
3.53316e-08
6.00334e-06
3.3366e-08
6.006e-06
3.1405e-08
6.00857e-06
2.94382e-08
2.74642e-08
6.01104e-06
6.37798e-06
7.91045e-09
6.38135e-06
2.20259e-08
6.38568e-06
3.18451e-08
6.39017e-06
3.75215e-08
6.3947e-06
4.06911e-08
6.39919e-06
4.22618e-08
6.40348e-06
4.25645e-08
6.40756e-06
4.19675e-08
6.41141e-06
4.08302e-08
6.41506e-06
3.93742e-08
6.41853e-06
3.77236e-08
6.42184e-06
3.59608e-08
6.425e-06
3.41425e-08
6.42803e-06
3.23007e-08
6.43094e-06
3.04513e-08
6.43375e-06
2.85989e-08
6.43644e-06
2.67407e-08
2.48879e-08
6.43902e-06
5.74176e-06
6.98343e-09
5.74435e-06
1.94403e-08
5.74782e-06
2.83723e-08
5.75155e-06
3.37892e-08
5.75536e-06
3.68832e-08
5.75916e-06
3.84634e-08
5.76285e-06
3.88751e-08
5.76637e-06
3.8439e-08
5.76974e-06
3.74678e-08
5.77294e-06
3.61704e-08
5.77599e-06
3.46688e-08
5.77891e-06
3.30439e-08
5.7817e-06
3.13507e-08
5.78438e-06
2.96237e-08
5.78695e-06
2.78809e-08
5.78941e-06
2.61319e-08
5.79178e-06
2.43784e-08
2.26401e-08
5.79402e-06
6.99914e-06
5.99896e-09
7.00188e-06
1.67042e-08
7.00564e-06
2.46043e-08
7.00981e-06
2.96175e-08
7.01414e-06
3.25574e-08
7.0185e-06
3.41029e-08
7.02278e-06
3.45947e-08
7.02691e-06
3.43073e-08
7.03088e-06
3.35042e-08
7.03467e-06
3.23754e-08
7.0383e-06
3.10384e-08
7.04177e-06
2.95697e-08
7.0451e-06
2.80236e-08
7.04829e-06
2.64347e-08
7.05134e-06
2.48247e-08
7.05427e-06
2.32065e-08
7.05706e-06
2.15865e-08
1.99902e-08
7.05971e-06
8.53188e-06
4.96471e-09
8.53474e-06
1.38449e-08
8.53878e-06
2.05689e-08
8.54338e-06
2.5014e-08
8.54824e-06
2.76958e-08
8.5532e-06
2.91435e-08
8.55812e-06
2.96699e-08
8.56292e-06
2.95056e-08
8.56756e-06
2.88639e-08
8.57203e-06
2.79093e-08
8.57632e-06
2.675e-08
8.58043e-06
2.54576e-08
8.58437e-06
2.40828e-08
8.58814e-06
2.26604e-08
8.59176e-06
2.12138e-08
8.5952e-06
1.9759e-08
8.59848e-06
1.83056e-08
1.68822e-08
8.60159e-06
1.04003e-05
3.88991e-09
1.04033e-05
1.08824e-08
1.04075e-05
1.62883e-08
1.04126e-05
1.99881e-08
1.0418e-05
2.22829e-08
1.04236e-05
2.35497e-08
1.04292e-05
2.40484e-08
1.04347e-05
2.39667e-08
1.04401e-05
2.34686e-08
1.04453e-05
2.26876e-08
1.04504e-05
2.17168e-08
1.04552e-05
2.06204e-08
1.04599e-05
1.94434e-08
1.04643e-05
1.82192e-08
1.04685e-05
1.69707e-08
1.04726e-05
1.5716e-08
1.04764e-05
1.44655e-08
1.32488e-08
1.04801e-05
1.26779e-05
2.77967e-09
1.2681e-05
7.81159e-09
1.26855e-05
1.17618e-08
1.26909e-05
1.45351e-08
1.26969e-05
1.62928e-08
1.27032e-05
1.72741e-08
1.27096e-05
1.76685e-08
1.27159e-05
1.76154e-08
1.27222e-05
1.72325e-08
1.27283e-05
1.66174e-08
1.27341e-05
1.58433e-08
1.27398e-05
1.49617e-08
1.27452e-05
1.40108e-08
1.27504e-05
1.30184e-08
1.27554e-05
1.2006e-08
1.27601e-05
1.099e-08
1.27646e-05
9.98114e-09
9.00648e-09
1.27688e-05
1.54543e-05
1.62345e-09
1.54576e-05
4.58724e-09
1.54624e-05
6.93291e-09
1.54683e-05
8.5965e-09
1.5475e-05
9.65337e-09
1.5482e-05
1.02287e-08
1.54892e-05
1.04317e-08
1.54965e-05
1.03466e-08
1.55037e-05
1.0044e-08
1.55107e-05
9.58375e-09
1.55176e-05
9.01294e-09
1.55242e-05
8.36651e-09
1.55305e-05
7.67096e-09
1.55366e-05
6.94674e-09
1.55424e-05
6.20995e-09
1.55479e-05
5.47371e-09
1.55531e-05
4.74633e-09
4.05098e-09
1.55581e-05
1.88389e-05
3.81463e-10
1.88424e-05
1.08559e-09
1.88477e-05
1.62894e-09
1.88543e-05
1.98274e-09
1.88618e-05
2.16849e-09
1.88698e-05
2.21393e-09
1.88781e-05
2.14096e-09
1.88865e-05
1.96946e-09
1.88948e-05
1.71976e-09
1.8903e-05
1.41044e-09
1.89109e-05
1.05707e-09
1.89186e-05
6.72661e-10
1.8926e-05
2.68372e-10
1.89331e-05
-1.46229e-10
1.89399e-05
-5.6298e-10
1.89463e-05
-9.7451e-10
1.89524e-05
-1.37648e-09
-1.75137e-09
1.89583e-05
2.29648e-05
-1.0472e-09
2.29688e-05
-2.98187e-09
2.2975e-05
-4.5687e-09
2.29828e-05
-5.78131e-09
2.29916e-05
-6.63861e-09
2.3001e-05
-7.22682e-09
2.30108e-05
-7.63325e-09
2.30207e-05
-7.91243e-09
2.30305e-05
-8.10081e-09
2.30402e-05
-8.22954e-09
2.30495e-05
-8.32207e-09
2.30586e-05
-8.39285e-09
2.30673e-05
-8.44953e-09
2.30757e-05
-8.49646e-09
2.30836e-05
-8.53551e-09
2.30912e-05
-8.56691e-09
2.30984e-05
-8.5912e-09
-8.5978e-09
2.31053e-05
1.68118e-05
-2.16843e-09
1.6815e-05
-6.14852e-09
1.68198e-05
-9.39237e-09
1.68258e-05
-1.17703e-08
1.68325e-05
-1.33398e-08
1.68396e-05
-1.43286e-08
1.68469e-05
-1.49243e-08
1.68542e-05
-1.52304e-08
1.68614e-05
-1.53261e-08
1.68685e-05
-1.52828e-08
1.68753e-05
-1.51535e-08
1.68819e-05
-1.49708e-08
1.68882e-05
-1.47556e-08
1.68942e-05
-1.45214e-08
1.69e-05
-1.42772e-08
1.69054e-05
-1.40274e-08
1.69106e-05
-1.37757e-08
-1.35151e-08
1.69155e-05
1.46356e-05
-3.24529e-09
1.46387e-05
-9.23143e-09
1.46434e-05
-1.41006e-08
1.46492e-05
-1.7506e-08
1.46554e-05
-1.96168e-08
1.4662e-05
-2.08828e-08
1.46687e-05
-2.15739e-08
1.46752e-05
-2.18264e-08
1.46817e-05
-2.17708e-08
1.46879e-05
-2.15239e-08
1.46939e-05
-2.11608e-08
1.46997e-05
-2.07266e-08
1.47052e-05
-2.02511e-08
1.47104e-05
-1.97556e-08
1.47154e-05
-1.92534e-08
1.47201e-05
-1.87521e-08
1.47246e-05
-1.82565e-08
-1.77627e-08
1.47289e-05
1.27411e-05
-4.25374e-09
1.27443e-05
-1.23554e-08
1.27491e-05
-1.8926e-08
1.27547e-05
-2.31449e-08
1.27607e-05
-2.55887e-08
1.27668e-05
-2.7031e-08
1.2773e-05
-2.77347e-08
1.2779e-05
-2.78489e-08
1.27848e-05
-2.75808e-08
1.27904e-05
-2.70956e-08
1.27957e-05
-2.64828e-08
1.28008e-05
-2.57941e-08
1.28056e-05
-2.50662e-08
1.28102e-05
-2.43251e-08
1.28145e-05
-2.3586e-08
1.28186e-05
-2.28575e-08
1.28225e-05
-2.21443e-08
-2.14437e-08
1.28262e-05
1.10918e-05
-5.09631e-09
1.1095e-05
-1.5574e-08
1.11001e-05
-2.40468e-08
1.11057e-05
-2.87629e-08
1.11115e-05
-3.13161e-08
1.11173e-05
-3.28354e-08
1.1123e-05
-3.34522e-08
1.11285e-05
-3.33487e-08
1.11337e-05
-3.28272e-08
1.11387e-05
-3.20851e-08
1.11434e-05
-3.12142e-08
1.11479e-05
-3.02709e-08
1.11522e-05
-2.92985e-08
1.11562e-05
-2.83255e-08
1.11599e-05
-2.73674e-08
1.11635e-05
-2.64319e-08
1.11669e-05
-2.55236e-08
-2.46396e-08
1.11701e-05
9.65582e-06
-5.70225e-09
9.65924e-06
-1.89949e-08
9.66458e-06
-2.93877e-08
9.67007e-06
-3.42535e-08
9.67562e-06
-3.68666e-08
9.68117e-06
-3.83855e-08
9.68649e-06
-3.87746e-08
9.69151e-06
-3.83651e-08
9.69624e-06
-3.75597e-08
9.70071e-06
-3.65526e-08
9.70492e-06
-3.54225e-08
9.70888e-06
-3.4229e-08
9.7126e-06
-3.30197e-08
9.7161e-06
-3.18241e-08
9.71939e-06
-3.06572e-08
9.72248e-06
-2.95263e-08
9.72539e-06
-2.84336e-08
-2.7375e-08
9.72813e-06
8.40532e-06
-5.67168e-09
8.40963e-06
-2.33066e-08
8.41486e-06
-3.46181e-08
8.41989e-06
-3.92753e-08
8.42524e-06
-4.22252e-08
8.43064e-06
-4.37849e-08
8.43572e-06
-4.38506e-08
8.44042e-06
-4.30607e-08
8.44477e-06
-4.19177e-08
8.44882e-06
-4.05978e-08
8.45257e-06
-3.91706e-08
8.45604e-06
-3.76984e-08
8.45925e-06
-3.62308e-08
8.46222e-06
-3.47959e-08
8.46497e-06
-3.34084e-08
8.46752e-06
-3.20748e-08
8.46988e-06
-3.07968e-08
-2.95711e-08
8.47208e-06
7.31455e-06
-2.93272e-09
7.32119e-06
-2.99468e-08
7.32673e-06
-4.01652e-08
7.33168e-06
-4.42214e-08
7.33707e-06
-4.76162e-08
7.34238e-06
-4.90981e-08
7.34725e-06
-4.87199e-08
7.35166e-06
-4.74643e-08
7.35562e-06
-4.58857e-08
7.35917e-06
-4.41431e-08
7.36232e-06
-4.23166e-08
7.3651e-06
-4.04787e-08
7.36755e-06
-3.86824e-08
7.3697e-06
-3.69519e-08
7.3716e-06
-3.53023e-08
7.37326e-06
-3.37364e-08
7.37472e-06
-3.22544e-08
-3.08471e-08
7.37599e-06
6.36245e-06
4.68427e-09
6.37189e-06
-3.93858e-08
6.37931e-06
-4.75886e-08
6.38595e-06
-5.08575e-08
6.39222e-06
-5.38927e-08
6.39753e-06
-5.44044e-08
6.40182e-06
-5.30073e-08
6.40529e-06
-5.09369e-08
6.40808e-06
-4.86771e-08
6.41026e-06
-4.63192e-08
6.41188e-06
-4.39399e-08
6.41302e-06
-4.16168e-08
6.41374e-06
-3.94003e-08
6.41409e-06
-3.7309e-08
6.41415e-06
-3.53565e-08
6.41395e-06
-3.35389e-08
6.41355e-06
-3.18573e-08
-3.02911e-08
6.413e-06
5.5412e-06
8.9475e-09
5.55032e-06
-4.85064e-08
5.55834e-06
-5.56036e-08
5.56604e-06
-5.85553e-08
5.57249e-06
-6.03495e-08
5.57681e-06
-5.87238e-08
5.57905e-06
-5.52427e-08
5.5796e-06
-5.14897e-08
5.57884e-06
-4.79166e-08
5.57705e-06
-4.45267e-08
5.57445e-06
-4.13388e-08
5.57122e-06
-3.83956e-08
5.56753e-06
-3.57054e-08
5.56348e-06
-3.32599e-08
5.55918e-06
-3.10562e-08
5.55472e-06
-2.90773e-08
5.55019e-06
-2.73246e-08
-2.57495e-08
5.54564e-06
4.86004e-06
-2.34883e-08
4.86538e-06
-5.38465e-08
4.86524e-06
-5.54556e-08
4.86216e-06
-5.54826e-08
4.85699e-06
-5.51754e-08
4.84948e-06
-5.12189e-08
4.83978e-06
-4.55414e-08
4.82838e-06
-4.00906e-08
4.8158e-06
-3.53368e-08
4.80252e-06
-3.12413e-08
4.78891e-06
-2.77334e-08
4.77527e-06
-2.47504e-08
4.76178e-06
-2.22141e-08
4.74857e-06
-2.00536e-08
4.73574e-06
-1.82227e-08
4.72335e-06
-1.66881e-08
4.71151e-06
-1.54877e-08
-1.51411e-08
4.7009e-06
4.17919e-06
4.12534e-06
4.06989e-06
4.0144e-06
3.95923e-06
3.90801e-06
3.86247e-06
3.82238e-06
3.78704e-06
3.7558e-06
3.72807e-06
3.70332e-06
3.6811e-06
3.66105e-06
3.64282e-06
3.62614e-06
3.61065e-06
3.59551e-06
1.08201e-08
-1.07992e-08
2.42333e-08
-1.34014e-08
3.41222e-08
-9.84956e-09
3.89552e-08
-4.82368e-09
3.86421e-08
3.56827e-10
3.36759e-08
4.97891e-09
2.50373e-08
8.69125e-09
1.35556e-08
1.1495e-08
4.31268e-11
1.35682e-08
-1.51247e-08
1.5175e-08
-3.15729e-08
1.6498e-08
-4.92005e-08
1.76274e-08
-6.78156e-08
1.86588e-08
-8.74583e-08
1.96346e-08
-1.07999e-07
2.05784e-08
-1.29504e-07
2.14918e-08
-1.51856e-07
2.23791e-08
-1.75096e-07
2.32325e-08
-1.99114e-07
2.40514e-08
-2.23908e-07
2.48241e-08
-2.49417e-07
2.55446e-08
-2.75527e-07
2.62014e-08
-3.02256e-07
2.67789e-08
-3.29374e-07
2.72715e-08
-3.56989e-07
2.76656e-08
-3.84782e-07
2.79742e-08
-4.1296e-07
2.81966e-08
-4.41178e-07
2.83704e-08
-4.69733e-07
2.85411e-08
-4.98662e-07
2.89915e-08
-5.28757e-07
3.00198e-08
-5.6124e-07
3.2442e-08
-5.99236e-07
3.78623e-08
-6.34757e-07
3.53616e-08
-6.65475e-07
3.05612e-08
-7.01989e-07
3.63311e-08
-7.42562e-07
4.0461e-08
-7.86345e-07
4.36432e-08
-8.32245e-07
4.58454e-08
-8.78641e-07
4.63151e-08
-9.25722e-07
4.70689e-08
-9.72132e-07
4.63772e-08
-1.01397e-06
4.18479e-08
-1.055e-06
4.10183e-08
-1.09844e-06
4.34572e-08
-1.14221e-06
4.37676e-08
-1.18615e-06
4.39479e-08
-1.23018e-06
4.40291e-08
-1.27421e-06
4.40377e-08
-1.31818e-06
4.39622e-08
-1.36201e-06
4.38255e-08
-1.40566e-06
4.364e-08
-1.44908e-06
4.34212e-08
-1.49227e-06
4.31753e-08
-1.53519e-06
4.29089e-08
-1.57782e-06
4.2623e-08
-1.62015e-06
4.23198e-08
-1.66215e-06
4.19981e-08
-1.70382e-06
4.1658e-08
-1.74513e-06
4.1297e-08
-1.78605e-06
4.09142e-08
-1.82656e-06
4.05071e-08
-1.86664e-06
4.00743e-08
-1.90626e-06
3.96129e-08
-1.94539e-06
3.91219e-08
-1.984e-06
3.85985e-08
-2.02204e-06
3.80416e-08
-2.0595e-06
3.74491e-08
-2.09633e-06
3.68201e-08
-2.13249e-06
3.61525e-08
-2.16794e-06
3.54461e-08
-2.20264e-06
3.4699e-08
-2.23656e-06
3.39112e-08
-2.26965e-06
3.30813e-08
-2.30186e-06
3.22096e-08
-2.33317e-06
3.12951e-08
-2.36351e-06
3.03384e-08
-2.39286e-06
2.93389e-08
-2.42116e-06
2.82976e-08
-2.44839e-06
2.72137e-08
-2.47448e-06
2.60886e-08
-2.49941e-06
2.49218e-08
-2.52313e-06
2.37147e-08
-2.54561e-06
2.24666e-08
-2.56679e-06
2.1179e-08
-2.58665e-06
1.98513e-08
-2.60514e-06
1.84848e-08
-2.62222e-06
1.70782e-08
-2.63786e-06
1.5631e-08
-2.652e-06
1.41408e-08
-2.6646e-06
1.26027e-08
-2.67561e-06
1.10117e-08
-2.68498e-06
9.36226e-09
-2.69263e-06
7.64639e-09
-2.69849e-06
5.85059e-09
-2.70245e-06
3.95644e-09
-2.70442e-06
1.96204e-09
-2.70437e-06
-5.18479e-11
-2.7025e-06
-1.87412e-09
-2.69901e-06
-3.50149e-09
-2.69393e-06
-5.0887e-09
-2.68728e-06
-6.66456e-09
-2.67905e-06
-8.24259e-09
-2.66924e-06
-9.82526e-09
-2.65784e-06
-1.14112e-08
-2.64486e-06
-1.29999e-08
-2.63029e-06
-1.45882e-08
-2.61413e-06
-1.61759e-08
-2.59638e-06
-1.77596e-08
-2.57706e-06
-1.93393e-08
-2.55616e-06
-2.09115e-08
-2.5337e-06
-2.24762e-08
-2.50968e-06
-2.40298e-08
-2.48412e-06
-2.55725e-08
-2.45702e-06
-2.71003e-08
-2.42842e-06
-2.86138e-08
-2.39831e-06
-3.01087e-08
-2.36673e-06
-3.15852e-08
-2.33369e-06
-3.30394e-08
-2.29922e-06
-3.44722e-08
-2.26334e-06
-3.58808e-08
-2.22609e-06
-3.72655e-08
-2.18748e-06
-3.86213e-08
-2.14755e-06
-3.99483e-08
-2.10632e-06
-4.12407e-08
-2.06383e-06
-4.2501e-08
-2.02011e-06
-4.3725e-08
-1.97519e-06
-4.49162e-08
-1.92912e-06
-4.60693e-08
-1.88192e-06
-4.71872e-08
-1.83364e-06
-4.82665e-08
-1.78431e-06
-4.93061e-08
-1.73399e-06
-5.02962e-08
-1.68272e-06
-5.12449e-08
-1.63053e-06
-5.21513e-08
-1.57748e-06
-5.30141e-08
-1.5236e-06
-5.38279e-08
-1.46895e-06
-5.45949e-08
-1.41358e-06
-5.53133e-08
-1.35753e-06
-5.59844e-08
-1.30086e-06
-5.66076e-08
-1.24362e-06
-5.71829e-08
-1.18585e-06
-5.77111e-08
-1.12761e-06
-5.81912e-08
-1.06895e-06
-5.8624e-08
-1.0099e-06
-5.90084e-08
-9.50516e-07
-5.9346e-08
-8.90851e-07
-5.96359e-08
-8.30947e-07
-5.98802e-08
-7.7085e-07
-6.00783e-08
-7.10605e-07
-6.02327e-08
-6.50255e-07
-6.03428e-08
-5.89843e-07
-6.04117e-08
-5.29408e-07
-6.04388e-08
-4.68991e-07
-6.04268e-08
-4.0863e-07
-6.03756e-08
-3.48362e-07
-6.02876e-08
-2.88224e-07
-6.01617e-08
-2.28253e-07
-6.00004e-08
-1.68483e-07
-5.98022e-08
-1.08944e-07
-5.95755e-08
-4.96794e-08
-5.93036e-08
9.21933e-09
-5.89411e-08
6.77902e-08
-5.86133e-08
1.26027e-07
-5.82806e-08
1.83828e-07
-5.78456e-08
2.41199e-07
-5.7416e-08
2.98147e-07
-5.69944e-08
3.54675e-07
-5.65752e-08
4.10773e-07
-5.61453e-08
4.66412e-07
-5.56888e-08
5.21542e-07
-5.51792e-08
5.76065e-07
-5.45743e-08
6.2981e-07
-5.37976e-08
6.82461e-07
-5.27048e-08
7.33401e-07
-5.0994e-08
7.81315e-07
-4.79682e-08
8.23037e-07
-4.1775e-08
8.50435e-07
-2.74477e-08
1.77241e-08
8.32671e-07
9.13295e-09
-1.99173e-08
1.2601e-08
-1.68609e-08
1.13413e-08
-8.57093e-09
6.8512e-09
-3.27182e-10
-1.53731e-10
7.38084e-09
-9.48189e-09
1.43147e-08
-2.10766e-08
2.03074e-08
-3.48861e-08
2.53124e-08
-5.0716e-08
2.94193e-08
-6.83383e-08
3.28036e-08
-8.74813e-08
3.56614e-08
-1.0801e-07
3.81604e-08
-1.29761e-07
4.04288e-08
-1.52674e-07
4.25496e-08
-1.76654e-07
4.45748e-08
-2.01692e-07
4.65304e-08
-2.27735e-07
4.84323e-08
-2.54784e-07
5.0286e-08
-2.82816e-07
5.20951e-08
-3.11832e-07
5.38598e-08
-3.41851e-07
5.55818e-08
-3.72869e-07
5.72638e-08
-4.04973e-07
5.89113e-08
-4.38162e-07
6.05394e-08
-4.72628e-07
6.21669e-08
-5.08397e-07
6.3833e-08
-5.45761e-07
6.5589e-08
-5.84824e-07
6.75144e-08
-6.25987e-07
6.97056e-08
-6.69249e-07
7.22804e-08
-7.14543e-07
7.52699e-08
-7.60659e-07
7.85108e-08
-8.04214e-07
8.13312e-08
-8.5067e-07
8.17178e-08
-9.01346e-07
8.11421e-08
-9.47822e-07
8.27111e-08
-9.92006e-07
8.45776e-08
-1.03468e-06
8.6254e-08
-1.0763e-06
8.7423e-08
-1.11789e-06
8.78776e-08
-1.15884e-06
8.80065e-08
-1.19994e-06
8.74738e-08
-1.24409e-06
8.59912e-08
-1.2883e-06
8.52332e-08
-1.33009e-06
8.52517e-08
-1.37128e-06
8.49583e-08
-1.41188e-06
8.45489e-08
-1.45194e-06
8.40926e-08
-1.49151e-06
8.36061e-08
-1.53064e-06
8.30876e-08
-1.56935e-06
8.25366e-08
-1.60767e-06
8.19545e-08
-1.6456e-06
8.13441e-08
-1.68314e-06
8.07068e-08
-1.72028e-06
8.00433e-08
-1.75701e-06
7.93525e-08
-1.79333e-06
7.86327e-08
-1.82922e-06
7.78811e-08
-1.86466e-06
7.70946e-08
-1.89964e-06
7.62695e-08
-1.93413e-06
7.54024e-08
-1.96812e-06
7.44892e-08
-2.00158e-06
7.35264e-08
-2.03448e-06
7.25102e-08
-2.0668e-06
7.14374e-08
-2.09851e-06
7.03047e-08
-2.12958e-06
6.91092e-08
-2.15998e-06
6.78483e-08
-2.18969e-06
6.65196e-08
-2.21866e-06
6.51211e-08
-2.24687e-06
6.36511e-08
-2.27428e-06
6.2108e-08
-2.30087e-06
6.04908e-08
-2.32659e-06
5.87984e-08
-2.35141e-06
5.70304e-08
-2.37531e-06
5.51864e-08
-2.39824e-06
5.32665e-08
-2.42018e-06
5.12708e-08
-2.44109e-06
4.92e-08
-2.46093e-06
4.70542e-08
-2.47968e-06
4.48347e-08
-2.49731e-06
4.2542e-08
-2.51377e-06
4.01773e-08
-2.52905e-06
3.77415e-08
-2.54312e-06
3.5236e-08
-2.55593e-06
3.26616e-08
-2.56747e-06
3.00199e-08
-2.57771e-06
2.73114e-08
-2.58661e-06
2.45373e-08
-2.59417e-06
2.16971e-08
-2.60036e-06
1.87908e-08
-2.60517e-06
1.58193e-08
-2.60859e-06
1.27849e-08
-2.61064e-06
9.6911e-09
-2.61134e-06
6.54432e-09
-2.61075e-06
3.36279e-09
-2.60898e-06
1.87557e-10
-2.6061e-06
-2.93151e-09
-2.60197e-06
-6.01201e-09
-2.59638e-06
-9.10008e-09
-2.58927e-06
-1.22007e-08
-2.58063e-06
-1.53128e-08
-2.57045e-06
-1.84381e-08
-2.55871e-06
-2.15748e-08
-2.54541e-06
-2.47199e-08
-2.53055e-06
-2.78698e-08
-2.51413e-06
-3.10207e-08
-2.49615e-06
-3.41692e-08
-2.47661e-06
-3.73115e-08
-2.45551e-06
-4.04443e-08
-2.43287e-06
-4.35639e-08
-2.40869e-06
-4.6667e-08
-2.38297e-06
-4.97498e-08
-2.35574e-06
-5.28091e-08
-2.32701e-06
-5.58409e-08
-2.29678e-06
-5.88421e-08
-2.26509e-06
-6.18086e-08
-2.23194e-06
-6.47367e-08
-2.19735e-06
-6.76229e-08
-2.16136e-06
-7.04651e-08
-2.12399e-06
-7.32601e-08
-2.08526e-06
-7.60051e-08
-2.04519e-06
-7.86948e-08
-2.00383e-06
-8.13251e-08
-1.96119e-06
-8.38905e-08
-1.9173e-06
-8.63896e-08
-1.87221e-06
-8.88191e-08
-1.82595e-06
-9.11794e-08
-1.77855e-06
-9.34674e-08
-1.73005e-06
-9.56835e-08
-1.68048e-06
-9.78242e-08
-1.62989e-06
-9.98829e-08
-1.57833e-06
-1.01849e-07
-1.52582e-06
-1.03731e-07
-1.47243e-06
-1.05528e-07
-1.41818e-06
-1.07237e-07
-1.36313e-06
-1.08851e-07
-1.30732e-06
-1.1037e-07
-1.25081e-06
-1.11793e-07
-1.19364e-06
-1.13121e-07
-1.13586e-06
-1.14353e-07
-1.07752e-06
-1.15489e-07
-1.01868e-06
-1.1653e-07
-9.59368e-07
-1.17474e-07
-8.99646e-07
-1.18323e-07
-8.39558e-07
-1.19077e-07
-7.79151e-07
-1.19735e-07
-7.18474e-07
-1.20299e-07
-6.57572e-07
-1.20771e-07
-5.96491e-07
-1.21151e-07
-5.35276e-07
-1.21442e-07
-4.7397e-07
-1.21647e-07
-4.12616e-07
-1.21766e-07
-3.51254e-07
-1.21804e-07
-2.89925e-07
-1.21762e-07
-2.28666e-07
-1.21644e-07
-1.67514e-07
-1.2145e-07
-1.06506e-07
-1.21184e-07
-4.56715e-08
-1.20849e-07
1.49585e-08
-1.2045e-07
7.53588e-08
-1.19994e-07
1.35508e-07
-1.19472e-07
1.95404e-07
-1.18858e-07
2.5494e-07
-1.18171e-07
3.14053e-07
-1.17415e-07
3.72788e-07
-1.16604e-07
4.31138e-07
-1.1579e-07
4.89099e-07
-1.1498e-07
5.46661e-07
-1.14163e-07
6.03806e-07
-1.13318e-07
6.60504e-07
-1.12414e-07
7.16697e-07
-1.11401e-07
7.72287e-07
-1.10194e-07
8.27103e-07
-1.08645e-07
8.8084e-07
-1.06474e-07
9.32958e-07
-1.03145e-07
9.8239e-07
-9.74338e-08
1.02746e-06
-8.6875e-08
1.06479e-06
-6.48114e-08
-1.23582e-08
1.09484e-06
7.21423e-10
-2.0628e-08
-4.77679e-09
-1.13553e-08
-1.29858e-08
-3.50569e-10
-2.29316e-08
9.62182e-09
-3.42471e-08
1.87062e-08
-4.68725e-08
2.6944e-08
-6.08624e-08
3.43071e-08
-7.63274e-08
4.07814e-08
-9.33119e-08
4.64144e-08
-1.11819e-07
5.13146e-08
-1.31773e-07
5.56251e-08
-1.53099e-07
5.94904e-08
-1.75697e-07
6.30368e-08
-1.99504e-07
6.63602e-08
-2.24452e-07
6.95303e-08
-2.50511e-07
7.2592e-08
-2.7765e-07
7.5576e-08
-3.05863e-07
7.85001e-08
-3.35144e-07
8.13788e-08
-3.65496e-07
8.42208e-08
-3.96947e-07
8.70358e-08
-4.29499e-07
8.9835e-08
-4.63211e-07
9.26322e-08
-4.98081e-07
9.54456e-08
-5.34199e-07
9.82965e-08
-5.71526e-07
1.0121e-07
-6.10133e-07
1.04207e-07
-6.49874e-07
1.07299e-07
-6.90643e-07
1.10471e-07
-7.32019e-07
1.13667e-07
-7.73523e-07
1.16743e-07
-8.14494e-07
1.1945e-07
-8.54665e-07
1.2145e-07
-8.95452e-07
1.22448e-07
-9.37176e-07
1.22817e-07
-9.77915e-07
1.23399e-07
-1.01745e-06
1.24078e-07
-1.05588e-06
1.24648e-07
-1.0934e-06
1.24929e-07
-1.1304e-06
1.24869e-07
-1.16695e-06
1.24552e-07
-1.20339e-06
1.23917e-07
-1.24038e-06
1.22982e-07
-1.27732e-06
1.2217e-07
-1.31355e-06
1.21486e-07
-1.34933e-06
1.20733e-07
-1.38472e-06
1.19945e-07
-1.41977e-06
1.19143e-07
-1.4545e-06
1.18332e-07
-1.48892e-06
1.17508e-07
-1.52305e-06
1.16667e-07
-1.5569e-06
1.15803e-07
-1.59048e-06
1.14913e-07
-1.62377e-06
1.13993e-07
-1.65677e-06
1.1304e-07
-1.68947e-06
1.12049e-07
-1.72185e-06
1.11016e-07
-1.75391e-06
1.09935e-07
-1.78562e-06
1.08802e-07
-1.81697e-06
1.0761e-07
-1.84792e-06
1.06355e-07
-1.87847e-06
1.05031e-07
-1.90858e-06
1.03633e-07
-1.93823e-06
1.02156e-07
-1.96739e-06
1.00596e-07
-1.99604e-06
9.89466e-08
-2.02413e-06
9.72055e-08
-2.05166e-06
9.53688e-08
-2.07858e-06
9.34332e-08
-2.10485e-06
9.1396e-08
-2.13046e-06
8.92547e-08
-2.15536e-06
8.70075e-08
-2.17953e-06
8.46525e-08
-2.20292e-06
8.21889e-08
-2.22551e-06
7.96156e-08
-2.24726e-06
7.69324e-08
-2.26813e-06
7.41393e-08
-2.2881e-06
7.12367e-08
-2.30713e-06
6.82251e-08
-2.32519e-06
6.51055e-08
-2.34223e-06
6.18792e-08
-2.35824e-06
5.85477e-08
-2.37318e-06
5.51126e-08
-2.38702e-06
5.15757e-08
-2.39972e-06
4.79395e-08
-2.41127e-06
4.4206e-08
-2.42163e-06
4.0378e-08
-2.43078e-06
3.64583e-08
-2.4387e-06
3.24496e-08
-2.44535e-06
2.83553e-08
-2.45074e-06
2.41787e-08
-2.45485e-06
1.9925e-08
-2.45767e-06
1.56018e-08
-2.4592e-06
1.12179e-08
-2.45944e-06
6.78601e-09
-2.45841e-06
2.32392e-09
-2.45608e-06
-2.14553e-09
-2.4524e-06
-6.61318e-09
-2.44731e-06
-1.11023e-08
-2.44079e-06
-1.56327e-08
-2.43279e-06
-2.0199e-08
-2.42332e-06
-2.4795e-08
-2.41235e-06
-2.9416e-08
-2.39987e-06
-3.40562e-08
-2.38589e-06
-3.87104e-08
-2.3704e-06
-4.33723e-08
-2.35339e-06
-4.80369e-08
-2.33487e-06
-5.26981e-08
-2.31484e-06
-5.73511e-08
-2.2933e-06
-6.199e-08
-2.27026e-06
-6.66101e-08
-2.24573e-06
-7.12056e-08
-2.21971e-06
-7.57716e-08
-2.19222e-06
-8.03025e-08
-2.16327e-06
-8.47936e-08
-2.13288e-06
-8.9239e-08
-2.10106e-06
-9.36335e-08
-2.06782e-06
-9.79715e-08
-2.0332e-06
-1.02248e-07
-1.9972e-06
-1.0646e-07
-1.95987e-06
-1.10601e-07
-1.92121e-06
-1.14668e-07
-1.88126e-06
-1.18653e-07
-1.84005e-06
-1.22549e-07
-1.79759e-06
-1.26352e-07
-1.75393e-06
-1.30056e-07
-1.7091e-06
-1.33657e-07
-1.66312e-06
-1.37154e-07
-1.61604e-06
-1.40545e-07
-1.5679e-06
-1.43828e-07
-1.51872e-06
-1.46999e-07
-1.46855e-06
-1.50048e-07
-1.41742e-06
-1.52965e-07
-1.36539e-06
-1.55755e-07
-1.31249e-06
-1.58418e-07
-1.25876e-06
-1.60949e-07
-1.20425e-06
-1.6334e-07
-1.14901e-06
-1.65589e-07
-1.09309e-06
-1.67697e-07
-1.03653e-06
-1.69662e-07
-9.79377e-07
-1.71484e-07
-9.21686e-07
-1.73163e-07
-8.63501e-07
-1.74699e-07
-8.04871e-07
-1.76092e-07
-7.45842e-07
-1.77341e-07
-6.86462e-07
-1.78448e-07
-6.26777e-07
-1.79412e-07
-5.66834e-07
-1.80236e-07
-5.06678e-07
-1.80921e-07
-4.46355e-07
-1.81471e-07
-3.85908e-07
-1.81887e-07
-3.2538e-07
-1.82173e-07
-2.64813e-07
-1.82333e-07
-2.04247e-07
-1.8237e-07
-1.43721e-07
-1.82289e-07
-8.32725e-08
-1.82094e-07
-2.2934e-08
-1.81791e-07
3.72612e-08
-1.81382e-07
9.72783e-08
-1.8087e-07
1.57086e-07
-1.80261e-07
2.16652e-07
-1.79563e-07
2.75954e-07
-1.78778e-07
3.34988e-07
-1.77895e-07
3.93725e-07
-1.76912e-07
4.52137e-07
-1.75832e-07
5.10219e-07
-1.74689e-07
5.67949e-07
-1.73525e-07
6.25314e-07
-1.72348e-07
6.82295e-07
-1.71148e-07
7.38872e-07
-1.69899e-07
7.9501e-07
-1.68557e-07
8.50654e-07
-1.67049e-07
9.05708e-07
-1.65254e-07
9.60019e-07
-1.6296e-07
1.01332e-06
-1.59784e-07
1.06519e-06
-1.55014e-07
1.11494e-06
-1.47192e-07
1.16166e-06
-1.33608e-07
1.20494e-06
-1.0809e-07
-5.68381e-08
1.24941e-06
-7.20038e-09
-1.34178e-08
-1.86952e-08
1.44771e-10
-3.15517e-08
1.2513e-08
-4.52499e-08
2.33223e-08
-5.96807e-08
3.31423e-08
-7.48876e-08
4.21523e-08
-9.09683e-08
5.03934e-08
-1.0806e-07
5.78748e-08
-1.26268e-07
6.46277e-08
-1.45671e-07
7.07193e-08
-1.66287e-07
7.62463e-08
-1.8811e-07
8.13165e-08
-2.11104e-07
8.60349e-08
-2.35231e-07
9.04903e-08
-2.60451e-07
9.4754e-08
-2.86734e-07
9.88771e-08
-3.14055e-07
1.02897e-07
-3.42393e-07
1.06839e-07
-3.71736e-07
1.10719e-07
-4.02065e-07
1.14549e-07
-4.3337e-07
1.18337e-07
-4.65617e-07
1.22086e-07
-4.98794e-07
1.25803e-07
-5.32822e-07
1.29487e-07
-5.67665e-07
1.33137e-07
-6.03176e-07
1.36744e-07
-6.39257e-07
1.40285e-07
-6.75663e-07
1.43725e-07
-7.12203e-07
1.47001e-07
-7.48564e-07
1.50027e-07
-7.84528e-07
1.52683e-07
-8.19939e-07
1.54837e-07
-8.54901e-07
1.56381e-07
-8.89783e-07
1.57298e-07
-9.24741e-07
1.57747e-07
-9.59382e-07
1.58013e-07
-9.9349e-07
1.58171e-07
-1.02705e-06
1.5819e-07
-1.06014e-06
1.58017e-07
-1.0929e-06
1.57631e-07
-1.12539e-06
1.57048e-07
-1.15774e-06
1.5626e-07
-1.19006e-06
1.5531e-07
-1.22224e-06
1.5435e-07
-1.25417e-06
1.53419e-07
-1.28591e-06
1.52472e-07
-1.31747e-06
1.51505e-07
-1.34885e-06
1.50524e-07
-1.38005e-06
1.4953e-07
-1.41106e-06
1.48521e-07
-1.44189e-06
1.47493e-07
-1.47253e-06
1.46439e-07
-1.50297e-06
1.45354e-07
-1.53321e-06
1.4423e-07
-1.56323e-06
1.43062e-07
-1.59303e-06
1.41842e-07
-1.62258e-06
1.40565e-07
-1.65187e-06
1.39223e-07
-1.68088e-06
1.37808e-07
-1.70959e-06
1.36314e-07
-1.73797e-06
1.34734e-07
-1.766e-06
1.33061e-07
-1.79366e-06
1.31288e-07
-1.82092e-06
1.2941e-07
-1.84774e-06
1.2742e-07
-1.87411e-06
1.25313e-07
-1.89999e-06
1.23084e-07
-1.92536e-06
1.20729e-07
-1.95017e-06
1.18243e-07
-1.9744e-06
1.15623e-07
-1.99801e-06
1.12867e-07
-2.02098e-06
1.09971e-07
-2.04326e-06
1.06933e-07
-2.06483e-06
1.03754e-07
-2.08564e-06
1.0043e-07
-2.10568e-06
9.69625e-08
-2.12489e-06
9.33511e-08
-2.14325e-06
8.95962e-08
-2.16073e-06
8.56988e-08
-2.17729e-06
8.16603e-08
-2.19289e-06
7.74824e-08
-2.20751e-06
7.31673e-08
-2.22112e-06
6.87173e-08
-2.23368e-06
6.41355e-08
-2.24517e-06
5.94249e-08
-2.25556e-06
5.45893e-08
-2.26481e-06
4.96325e-08
-2.27292e-06
4.4559e-08
-2.27984e-06
3.93738e-08
-2.28557e-06
3.40819e-08
-2.29008e-06
2.86896e-08
-2.29336e-06
2.32041e-08
-2.2954e-06
1.76345e-08
-2.29617e-06
1.19911e-08
-2.29567e-06
6.28576e-09
-2.29388e-06
5.3132e-10
-2.29077e-06
-5.26116e-09
-2.2863e-06
-1.10912e-08
-2.28043e-06
-1.69708e-08
-2.27316e-06
-2.29066e-08
-2.26447e-06
-2.8893e-08
-2.25435e-06
-3.4922e-08
-2.24279e-06
-4.09859e-08
-2.22978e-06
-4.70766e-08
-2.21531e-06
-5.31866e-08
-2.19938e-06
-5.93077e-08
-2.18199e-06
-6.5433e-08
-2.16314e-06
-7.15545e-08
-2.14283e-06
-7.76657e-08
-2.12107e-06
-8.37589e-08
-2.09786e-06
-8.98278e-08
-2.0732e-06
-9.58646e-08
-2.04712e-06
-1.01863e-07
-2.01961e-06
-1.07816e-07
-1.99069e-06
-1.13716e-07
-1.96037e-06
-1.19557e-07