/*--------------------------------*- C++ -*----------------------------------*\
  =========                 |
  \\      /  F ield         | OpenFOAM: The Open Source CFD Toolbox
   \\    /   O peration     | Website:  https://openfoam.org
    \\  /    A nd           | Version:  6
     \\/     M anipulation  |
\*---------------------------------------------------------------------------*/
FoamFile
{
    version     2.0;
    format      ascii;
    class       volVectorField;
    location    "288";
    object      U;
}
// * * * * * * * * * * * * * * * * * * * * * * * * * * * * * * * * * * * * * //

dimensions      [0 1 -1 0 0 0 0];

internalField   nonuniform List<vector> 
12225
(
(9.85698 -0.886449 0)
(9.66665 -0.740747 0)
(9.45574 -0.429483 0)
(9.22457 -0.222216 0)
(9.00656 -0.106462 0)
(8.81447 -0.0458767 0)
(8.64764 -0.015181 0)
(8.50548 0.000439164 0)
(8.38389 0.00837061 0)
(8.28119 0.0122615 0)
(8.1929 0.0139564 0)
(8.11682 0.0149822 0)
(8.05028 0.015317 0)
(7.99145 0.0155405 0)
(7.9388 0.0153661 0)
(7.89276 0.0160312 0)
(7.84039 0.0191809 0)
(7.83143 0.00952417 0)
(10.0545 0.227568 0)
(10.1211 0.32691 0)
(10.1196 0.261569 0)
(10.0856 0.186536 0)
(10.0435 0.134661 0)
(9.99677 0.101105 0)
(9.94407 0.07927 0)
(9.88537 0.0645475 0)
(9.82404 0.0542354 0)
(9.76158 0.0466397 0)
(9.70016 0.0408644 0)
(9.64044 0.0362905 0)
(9.58322 0.0326148 0)
(9.529 0.0296993 0)
(9.47726 0.0271669 0)
(9.42997 0.0258001 0)
(9.38248 0.0223176 0)
(9.3472 0.0311399 0)
(10.0035 0.057918 0)
(10.0303 0.0560056 0)
(10.0561 0.033776 0)
(10.0704 0.0328896 0)
(10.077 0.0406356 0)
(10.0779 0.0465285 0)
(10.0726 0.0493384 0)
(10.0615 0.0502773 0)
(10.0463 0.0501667 0)
(10.0279 0.0494426 0)
(10.0074 0.0483838 0)
(9.98532 0.0472003 0)
(9.96228 0.0459814 0)
(9.93877 0.0448618 0)
(9.915 0.0437034 0)
(9.89178 0.0431581 0)
(9.86878 0.042058 0)
(9.84705 0.043285 0)
(9.99779 0.011053 0)
(10.011 0.0266061 0)
(10.035 0.0371458 0)
(10.0525 0.0480772 0)
(10.0644 0.0554393 0)
(10.0735 0.0581663 0)
(10.0796 0.0583292 0)
(10.0825 0.0575791 0)
(10.0829 0.0565197 0)
(10.0814 0.0553104 0)
(10.0784 0.0540196 0)
(10.0741 0.0527651 0)
(10.0688 0.0515348 0)
(10.0628 0.0504283 0)
(10.0561 0.0493245 0)
(10.0493 0.0486161 0)
(10.0425 0.0476583 0)
(10.0355 0.0473804 0)
(9.99935 0.00719717 0)
(10.009 0.0316514 0)
(10.0275 0.0439155 0)
(10.0418 0.0499117 0)
(10.0528 0.053595 0)
(10.0629 0.055213 0)
(10.0717 0.0554846 0)
(10.0785 0.0551849 0)
(10.0836 0.0546289 0)
(10.0875 0.0539086 0)
(10.0903 0.0530773 0)
(10.0923 0.0522282 0)
(10.0935 0.0513716 0)
(10.0942 0.0505757 0)
(10.0945 0.0497826 0)
(10.0945 0.0491788 0)
(10.0945 0.0484483 0)
(10.0944 0.0478435 0)
(10.0003 0.00917698 0)
(10.0083 0.0311654 0)
(10.0227 0.0409347 0)
(10.035 0.0453784 0)
(10.0451 0.0490165 0)
(10.0548 0.0513434 0)
(10.0638 0.0523144 0)
(10.0715 0.0525354 0)
(10.078 0.0523859 0)
(10.0836 0.0520028 0)
(10.0885 0.0514606 0)
(10.0927 0.0508448 0)
(10.0964 0.0501865 0)
(10.0997 0.0495328 0)
(10.1026 0.0488616 0)
(10.1054 0.0482474 0)
(10.1081 0.0475369 0)
(10.1107 0.0467217 0)
(10.0005 0.00894289 0)
(10.0071 0.0270792 0)
(10.0191 0.0364013 0)
(10.0302 0.0413721 0)
(10.0396 0.0453874 0)
(10.0487 0.0480428 0)
(10.0573 0.0492995 0)
(10.065 0.0497541 0)
(10.0718 0.0498081 0)
(10.078 0.0496065 0)
(10.0835 0.0492258 0)
(10.0886 0.0487406 0)
(10.0933 0.0481906 0)
(10.0976 0.0476081 0)
(10.1017 0.0469862 0)
(10.1056 0.0463449 0)
(10.1094 0.0455988 0)
(10.1131 0.0446754 0)
(10.0004 0.00791355 0)
(10.006 0.0233712 0)
(10.0161 0.0327209 0)
(10.0263 0.0380789 0)
(10.0352 0.0420641 0)
(10.0436 0.0447353 0)
(10.0518 0.0461316 0)
(10.0593 0.046747 0)
(10.0661 0.0469462 0)
(10.0723 0.0468728 0)
(10.0781 0.0466042 0)
(10.0834 0.0462077 0)
(10.0885 0.0457262 0)
(10.0932 0.0451838 0)
(10.0977 0.0445793 0)
(10.1021 0.0439088 0)
(10.1064 0.0431182 0)
(10.1105 0.0421393 0)
(10.0004 0.00695732 0)
(10.0051 0.0204172 0)
(10.0137 0.0294364 0)
(10.0229 0.0348349 0)
(10.0312 0.0386745 0)
(10.0392 0.0413223 0)
(10.0469 0.0428373 0)
(10.0541 0.04359 0)
(10.0607 0.0439033 0)
(10.0669 0.0439263 0)
(10.0727 0.0437385 0)
(10.0781 0.0434034 0)
(10.0833 0.0429636 0)
(10.0882 0.0424402 0)
(10.0929 0.0418342 0)
(10.0974 0.0411348 0)
(10.1018 0.0403043 0)
(10.1061 0.0392979 0)
(10.0004 0.00612591 0)
(10.0043 0.0178499 0)
(10.0116 0.026256 0)
(10.0199 0.0315512 0)
(10.0277 0.0352633 0)
(10.0352 0.0378737 0)
(10.0425 0.0394664 0)
(10.0494 0.0403199 0)
(10.0558 0.0407178 0)
(10.0618 0.0408118 0)
(10.0675 0.0406827 0)
(10.0729 0.0403904 0)
(10.0781 0.0399759 0)
(10.083 0.0394598 0)
(10.0877 0.0388451 0)
(10.0923 0.038122 0)
(10.0966 0.0372644 0)
(10.1009 0.0362511 0)
(10.0003 0.00536539 0)
(10.0037 0.0155387 0)
(10.0099 0.0232152 0)
(10.0173 0.0283117 0)
(10.0245 0.0318803 0)
(10.0315 0.0344126 0)
(10.0384 0.0360286 0)
(10.045 0.0369444 0)
(10.0513 0.037401 0)
(10.0571 0.0375459 0)
(10.0627 0.0374592 0)
(10.068 0.0371971 0)
(10.0731 0.0367991 0)
(10.0779 0.0362859 0)
(10.0826 0.0356634 0)
(10.0871 0.0349256 0)
(10.0914 0.0340564 0)
(10.0956 0.0330528 0)
(10.0003 0.00469966 0)
(10.0032 0.0135959 0)
(10.0086 0.0205663 0)
(10.0152 0.0253966 0)
(10.0219 0.0287981 0)
(10.0286 0.0312236 0)
(10.0351 0.0328192 0)
(10.0414 0.0337601 0)
(10.0474 0.0342491 0)
(10.0531 0.0344241 0)
(10.0586 0.0343636 0)
(10.0638 0.0341208 0)
(10.0688 0.0337331 0)
(10.0735 0.0332224 0)
(10.0781 0.0325966 0)
(10.0825 0.031855 0)
(10.0867 0.0309883 0)
(10.0907 0.0300075 0)
(10.0003 0.00408431 0)
(10.0028 0.011825 0)
(10.0075 0.0180646 0)
(10.0134 0.0225524 0)
(10.0197 0.0257524 0)
(10.0259 0.0280458 0)
(10.0321 0.0295886 0)
(10.0381 0.0305276 0)
(10.0439 0.0310309 0)
(10.0495 0.0312229 0)
(10.0548 0.0311793 0)
(10.0598 0.0309503 0)
(10.0647 0.0305715 0)
(10.0694 0.0300651 0)
(10.0738 0.0294418 0)
(10.0781 0.0287055 0)
(10.0822 0.0278525 0)
(10.0861 0.026904 0)
(10.0002 0.00344869 0)
(10.0024 0.00998435 0)
(10.0064 0.0153812 0)
(10.0117 0.0194017 0)
(10.0174 0.0223167 0)
(10.0232 0.0244183 0)
(10.029 0.0258576 0)
(10.0348 0.0267574 0)
(10.0403 0.0272505 0)
(10.0457 0.0274436 0)
(10.0508 0.0274068 0)
(10.0557 0.0271863 0)
(10.0604 0.0268158 0)
(10.065 0.0263173 0)
(10.0693 0.025704 0)
(10.0734 0.0249839 0)
(10.0774 0.0241586 0)
(10.0811 0.0232561 0)
(10.0002 0.00278875 0)
(10.002 0.00807267 0)
(10.0055 0.0125266 0)
(10.0101 0.01595 0)
(10.0153 0.0184781 0)
(10.0206 0.0203127 0)
(10.0261 0.0215849 0)
(10.0314 0.0223942 0)
(10.0367 0.0228411 0)
(10.0418 0.0230114 0)
(10.0468 0.0229657 0)
(10.0515 0.022746 0)
(10.0561 0.022382 0)
(10.0604 0.0218956 0)
(10.0646 0.0213014 0)
(10.0686 0.0206107 0)
(10.0724 0.0198288 0)
(10.076 0.0189872 0)
(10.0002 0.00210387 0)
(10.0017 0.00609223 0)
(10.0047 0.00950963 0)
(10.0088 0.0122026 0)
(10.0134 0.0142249 0)
(10.0183 0.0157003 0)
(10.0233 0.0167269 0)
(10.0283 0.0173805 0)
(10.0333 0.0177322 0)
(10.0382 0.0178456 0)
(10.0429 0.017769 0)
(10.0475 0.0175372 0)
(10.0518 0.017176 0)
(10.056 0.0167049 0)
(10.06 0.0161389 0)
(10.0639 0.0154904 0)
(10.0675 0.0147669 0)
(10.071 0.014 0)
(10.0002 0.00139119 0)
(10.0015 0.00402926 0)
(10.0041 0.00631442 0)
(10.0076 0.00814305 0)
(10.0118 0.00952947 0)
(10.0163 0.0105378 0)
(10.0209 0.0112284 0)
(10.0256 0.01165 0)
(10.0303 0.0118475 0)
(10.0349 0.0118618 0)
(10.0394 0.0117261 0)
(10.0438 0.0114658 0)
(10.048 0.0111005 0)
(10.052 0.0106458 0)
(10.0558 0.0101148 0)
(10.0595 0.00951892 0)
(10.063 0.00886565 0)
(10.0663 0.00818395 0)
(10.0001 0.000634422 0)
(10.0013 0.00183231 0)
(10.0036 0.00286934 0)
(10.0068 0.00369197 0)
(10.0107 0.00430187 0)
(10.0148 0.00472141 0)
(10.0192 0.00497334 0)
(10.0236 0.00507758 0)
(10.0281 0.00505357 0)
(10.0325 0.00491971 0)
(10.0368 0.0046918 0)
(10.0409 0.00438278 0)
(10.0449 0.00400362 0)
(10.0488 0.0035639 0)
(10.0525 0.00307223 0)
(10.056 0.00253697 0)
(10.0593 0.00196344 0)
(10.0625 0.00137589 0)
(10.0001 -0.000209428 0)
(10.0012 -0.000620291 0)
(10.0034 -0.000998329 0)
(10.0065 -0.00134235 0)
(10.0102 -0.00165033 0)
(10.0143 -0.00193628 0)
(10.0185 -0.002218 0)
(10.0228 -0.00250753 0)
(10.0271 -0.00281194 0)
(10.0313 -0.00313669 0)
(10.0355 -0.00348573 0)
(10.0395 -0.00386115 0)
(10.0434 -0.00426314 0)
(10.0471 -0.00469073 0)
(10.0507 -0.00514189 0)
(10.054 -0.00561359 0)
(10.0573 -0.0061042 0)
(10.0603 -0.00659645 0)
(10.0001 -0.00101637 0)
(10.0013 -0.00297258 0)
(10.0037 -0.00471471 0)
(10.007 -0.00617046 0)
(10.0108 -0.00733526 0)
(10.015 -0.00826878 0)
(10.0193 -0.00903242 0)
(10.0237 -0.00966791 0)
(10.028 -0.0102094 0)
(10.0323 -0.0106881 0)
(10.0364 -0.0111287 0)
(10.0404 -0.0115472 0)
(10.0442 -0.0119548 0)
(10.0479 -0.0123583 0)
(10.0514 -0.0127626 0)
(10.0547 -0.0131695 0)
(10.0579 -0.0135813 0)
(10.0609 -0.0139867 0)
(10.0002 -0.00171218 0)
(10.0015 -0.00502683 0)
(10.0041 -0.00796232 0)
(10.0078 -0.0103243 0)
(10.012 -0.0121326 0)
(10.0164 -0.0135372 0)
(10.021 -0.0146439 0)
(10.0255 -0.0155097 0)
(10.03 -0.0161913 0)
(10.0343 -0.0167469 0)
(10.0385 -0.0172207 0)
(10.0425 -0.0176411 0)
(10.0464 -0.018027 0)
(10.0501 -0.0183919 0)
(10.0535 -0.018745 0)
(10.0569 -0.0190913 0)
(10.06 -0.0194352 0)
(10.063 -0.0197692 0)
(10.0002 -0.002373 0)
(10.0016 -0.00705698 0)
(10.0047 -0.0112078 0)
(10.009 -0.0143866 0)
(10.0137 -0.0166923 0)
(10.0185 -0.0184351 0)
(10.0233 -0.019775 0)
(10.0281 -0.0207827 0)
(10.0328 -0.0215393 0)
(10.0373 -0.0221258 0)
(10.0416 -0.0225985 0)
(10.0456 -0.0229939 0)
(10.0495 -0.023338 0)
(10.0532 -0.0236505 0)
(10.0567 -0.0239439 0)
(10.06 -0.0242262 0)
(10.0631 -0.0245024 0)
(10.0661 -0.0247681 0)
(10.0002 -0.00299155 0)
(10.0018 -0.00911315 0)
(10.0054 -0.0144758 0)
(10.0105 -0.0183731 0)
(10.0159 -0.0211251 0)
(10.0211 -0.0231551 0)
(10.0263 -0.0246182 0)
(10.0314 -0.0256395 0)
(10.0362 -0.026373 0)
(10.0408 -0.0269285 0)
(10.0452 -0.0273623 0)
(10.0494 -0.0277098 0)
(10.0533 -0.0280003 0)
(10.057 -0.028256 0)
(10.0605 -0.0284909 0)
(10.0638 -0.0287134 0)
(10.067 -0.0289288 0)
(10.0699 -0.0291346 0)
(10.0001 -0.00353681 0)
(10.0018 -0.0115647 0)
(10.0062 -0.0179074 0)
(10.0123 -0.022012 0)
(10.0183 -0.0250859 0)
(10.024 -0.0275019 0)
(10.0296 -0.0291464 0)
(10.035 -0.0301625 0)
(10.0401 -0.0308204 0)
(10.0448 -0.031285 0)
(10.0493 -0.0316238 0)
(10.0535 -0.031877 0)
(10.0575 -0.0320785 0)
(10.0613 -0.0322521 0)
(10.0648 -0.0324112 0)
(10.0681 -0.032563 0)
(10.0712 -0.0327111 0)
(10.0741 -0.0328517 0)
(9.99991 -0.00338475 0)
(10.0016 -0.0149793 0)
(10.0073 -0.0227423 0)
(10.0142 -0.0262597 0)
(10.0206 -0.0288522 0)
(10.0268 -0.0312229 0)
(10.0331 -0.0329494 0)
(10.039 -0.0340422 0)
(10.0444 -0.0347464 0)
(10.0494 -0.0352142 0)
(10.054 -0.0355158 0)
(10.0583 -0.0357052 0)
(10.0622 -0.0358287 0)
(10.0659 -0.035917 0)
(10.0693 -0.0359883 0)
(10.0725 -0.0360522 0)
(10.0754 -0.0361136 0)
(10.0781 -0.0361707 0)
(9.9986 -0.00040113 0)
(9.99908 -0.0157651 0)
(10.0075 -0.0274421 0)
(10.0166 -0.0325075 0)
(10.0237 -0.0348881 0)
(10.0306 -0.0362479 0)
(10.0376 -0.0370036 0)
(10.0441 -0.0374741 0)
(10.0498 -0.037826 0)
(10.0549 -0.0380763 0)
(10.0595 -0.0382239 0)
(10.0635 -0.0382938 0)
(10.0671 -0.0383161 0)
(10.0702 -0.0383121 0)
(10.073 -0.038297 0)
(10.0754 -0.0382788 0)
(10.0775 -0.0382616 0)
(10.0794 -0.0382431 0)
(9.99488 0.0013334 0)
(9.99287 -0.00809893 0)
(10.006 -0.0203605 0)
(10.0202 -0.0322884 0)
(10.0306 -0.0404932 0)
(10.0392 -0.0441674 0)
(10.0467 -0.0450825 0)
(10.0529 -0.0449404 0)
(10.0577 -0.0444759 0)
(10.0616 -0.0438825 0)
(10.0645 -0.0432396 0)
(10.0667 -0.0426043 0)
(10.0681 -0.0420107 0)
(10.069 -0.0414673 0)
(10.0693 -0.0409836 0)
(10.0691 -0.040556 0)
(10.0687 -0.0401816 0)
(10.0679 -0.0398347 0)
(9.99473 -0.0305628 0)
(9.99925 -0.0228763 0)
(10.0147 -0.00264181 0)
(10.0304 -0.00191791 0)
(10.0434 -0.0116693 0)
(10.0533 -0.0209348 0)
(10.0594 -0.0272936 0)
(10.0618 -0.0315231 0)
(10.0615 -0.0342995 0)
(10.059 -0.0359973 0)
(10.055 -0.0369302 0)
(10.0497 -0.0373645 0)
(10.0434 -0.0374907 0)
(10.0363 -0.0374286 0)
(10.0288 -0.0372684 0)
(10.0208 -0.0370654 0)
(10.0127 -0.0368843 0)
(10.0045 -0.0366938 0)
(10.0273 -0.182759 0)
(10.0763 -0.288316 0)
(10.0871 -0.247759 0)
(10.0777 -0.186524 0)
(10.0663 -0.140303 0)
(10.0537 -0.108229 0)
(10.0365 -0.0858906 0)
(10.0145 -0.0704315 0)
(9.98933 -0.0596635 0)
(9.96228 -0.0518902 0)
(9.9343 -0.0460685 0)
(9.90597 -0.0415713 0)
(9.87778 -0.0380155 0)
(9.85006 -0.0351405 0)
(9.82306 -0.032774 0)
(9.79688 -0.0308528 0)
(9.77177 -0.0293354 0)
(9.74776 -0.0285151 0)
(9.93574 0.689319 0)
(9.8686 0.609604 0)
(9.76452 0.380621 0)
(9.62662 0.217439 0)
(9.48586 0.119264 0)
(9.35716 0.0631824 0)
(9.24262 0.0315704 0)
(9.14105 0.0136102 0)
(9.05135 0.00325679 0)
(8.97236 -0.00280468 0)
(8.90244 -0.00636033 0)
(8.84024 -0.00847974 0)
(8.78453 -0.00973056 0)
(8.7344 -0.0104766 0)
(8.68896 -0.0109796 0)
(8.6476 -0.0112486 0)
(8.6094 -0.011455 0)
(8.57405 -0.0121149 0)
(0.00454914 -0.0106141 -8.32291e-19)
(0.0162527 -0.0173078 7.38626e-19)
(0.026531 -0.0152183 0)
(0.0332944 -0.00931372 0)
(0.0355581 -0.00236483 0)
(0.0330348 0.00397785 -3.91195e-19)
(0.0268004 0.00889171 0)
(0.0177017 0.0122809 0)
(0.00646362 0.0144399 0)
(-0.00640576 0.01576 0)
(-0.0205523 0.0166175 2.39535e-19)
(-0.0357632 0.0172751 0)
(-0.0519384 0.017885 0)
(-0.0690226 0.0185019 0)
(-0.0869791 0.0191459 0)
(-0.105786 0.0198083 1.28434e-19)
(-0.12542 0.0204848 0)
(-0.145852 0.0211592 0)
(-0.167051 0.0218245 0)
(-0.18897 0.0224642 0)
(-0.211582 0.0230692 0)
(-0.234809 0.0236321 0)
(-0.258608 0.0241488 0)
(-0.282877 0.0246435 7.42259e-20)
(-0.307553 0.0251566 -7.09528e-20)
(-0.332542 0.0258035 6.81137e-20)
(-0.357826 0.0267671 6.56981e-20)
(-0.383386 0.0283645 0)
(-0.409211 0.0310494 0)
(-0.435398 0.0357969 -6.09095e-20)
(-0.462251 0.0430145 -6.04773e-20)
(-0.490236 0.0530742 0)
(-0.519506 0.0669254 0)
(-0.552373 0.0448695 -8.24198e-20)
(-0.586936 0.00851415 0)
(-0.615991 0.0115469 0)
(-0.6513 0.0162804 8.07931e-20)
(-0.689829 0.0225492 0)
(-0.730639 0.028729 7.38067e-20)
(-0.773495 0.0322024 1.40881e-19)
(-0.817072 0.0387131 0)
(-0.858637 0.0397353 0)
(-0.899666 0.0269328 0)
(-0.937732 0.0256551 0)
(-0.974914 0.0340079 0)
(-1.01582 0.0347937 1.14803e-19)
(-1.0564 0.0348765 1.1154e-19)
(-1.09709 0.0347502 1.08434e-19)
(-1.13783 0.0345994 0)
(-1.17859 0.0343761 -1.02737e-19)
(-1.2193 0.0341078 0)
(-1.25991 0.0337986 9.76944e-20)
(-1.30041 0.0334659 9.53905e-20)
(-1.34075 0.0331146 0)
(-1.38091 0.0327514 0)
(-1.42089 0.0323777 0)
(-1.46065 0.0319958 8.73717e-20)
(-1.5002 0.031605 0)
(-1.5395 0.0312055 0)
(-1.57855 0.030796 0)
(-1.61732 0.0303756 0)
(-1.65578 0.0299428 0)
(-1.69393 0.0294966 0)
(-1.73173 0.0290352 0)
(-1.76916 0.0285577 0)
(-1.80619 0.0280627 -7.41293e-20)
(-1.84279 0.0275495 0)
(-1.87892 0.0270168 0)
(-1.91455 0.0264642 7.06601e-20)
(-1.94965 0.0258909 6.95751e-20)
(-1.98418 0.0252966 0)
(-2.01811 0.0246806 -6.74945e-20)
(-2.05139 0.0240431 6.64936e-20)
(-2.08399 0.0233838 0)
(-2.11586 0.0227028 -6.45577e-20)
(-2.14697 0.0220002 0)
(-2.17728 0.0212765 0)
(-2.20674 0.020532 6.17851e-20)
(-2.23532 0.0197673 0)
(-2.26297 0.0189825 -5.99996e-20)
(-2.28965 0.0181785 0)
(-2.31532 0.0173556 5.82463e-20)
(-2.33995 0.0165144 5.73772e-20)
(-2.36349 0.0156549 5.65108e-20)
(-2.3859 0.0147778 1.11291e-19)
(-2.40715 0.0138827 -1.0956e-19)
(-2.42718 0.0129693 0)
(-2.44597 0.0120359 0)
(-2.46348 0.0110804 0)
(-2.47965 0.0100985 -1.02563e-19)
(-2.49445 0.00908413 -1.00783e-19)
(-2.50783 0.00803005 9.8985e-20)
(-2.51973 0.00692724 0)
(-2.53008 0.00576548 -9.53306e-20)
(-2.53882 0.0045391 -9.3471e-20)
(-2.54587 0.00326237 -9.15898e-20)
(-2.55115 0.00198868 0)
(-2.55453 0.000810497 0)
(-2.55593 -0.000194568 0)
(-2.55591 -0.00108573 -8.37191e-20)
(-2.55437 -0.00195194 0)
(-2.55135 -0.00280558 0)
(-2.54685 -0.00365405 7.73039e-20)
(-2.54086 -0.00449804 0)
(-2.53338 -0.00533726 0)
(-2.52439 -0.00617142 7.03938e-20)
(-2.51388 -0.00699935 0)
(-2.50186 -0.00782099 0)
(-2.48832 -0.00863511 -6.29223e-20)
(-2.47326 -0.00944183 -6.02952e-20)
(-2.45667 -0.0102398 0)
(-2.43857 -0.0110293 5.48206e-20)
(-2.41895 -0.0118088 0)
(-2.39781 -0.0125788 -4.90334e-20)
(-2.37518 -0.0133376 0)
(-2.35105 -0.0140858 -4.29103e-20)
(-2.32543 -0.0148219 -3.97149e-20)
(-2.29835 -0.0155462 0)
(-2.2698 -0.0162575 0)
(-2.2398 -0.0169565 0)
(-2.20839 -0.0176423 0)
(-2.17557 -0.0183152 0)
(-2.14137 -0.0189733 0)
(-2.10581 -0.019617 0)
(-2.0689 -0.0202444 -1.04579e-20)
(-2.03068 -0.0208573 6.27429e-21)
(-1.99116 -0.0214547 0)
(-1.95038 -0.0220388 0)
(-1.90837 -0.0226069 0)
(-1.86515 -0.0231598 0)
(-1.82076 -0.0236965 -3.3553e-20)
(-1.77523 -0.0242174 0)
(-1.7286 -0.0247216 5.42504e-20)
(-1.6809 -0.0252131 -6.51479e-20)
(-1.63217 -0.0256879 0)
(-1.58245 -0.0261469 0)
(-1.53177 -0.0265901 0)
(-1.48019 -0.027018 1.12881e-19)
(-1.42773 -0.0274308 1.25974e-19)
(-1.37446 -0.0278294 0)
(-1.3204 -0.0282141 1.5375e-19)
(-1.26561 -0.0285856 1.685e-19)
(-1.21013 -0.0289445 -1.83875e-19)
(-1.15401 -0.029291 0)
(-1.09728 -0.0296258 0)
(-1.04 -0.0299492 -2.34202e-19)
(-0.982203 -0.0302621 0)
(-0.923933 -0.0305648 0)
(-0.865235 -0.0308585 0)
(-0.806151 -0.0311436 0)
(-0.746722 -0.0314215 3.35507e-19)
(-0.68699 -0.0316927 3.59045e-19)
(-0.626993 -0.0319588 0)
(-0.566772 -0.0322203 4.10184e-19)
(-0.506363 -0.0324789 0)
(-0.445802 -0.0327351 0)
(-0.385126 -0.0329902 4.99074e-19)
(-0.324368 -0.0332438 0)
(-0.263564 -0.033499 5.6848e-19)
(-0.202749 -0.033763 0)
(-0.141955 -0.0340513 0)
(-0.08122 -0.0343372 6.92752e-19)
(-0.0206043 -0.0344366 0)
(0.0398332 -0.0339419 7.40463e-19)
(0.100151 -0.0330167 0)
(0.160297 -0.0320882 0)
(0.220227 -0.0312139 0)
(0.279936 -0.0303895 -6.71519e-19)
(0.33943 -0.0296071 0)
(0.398707 -0.0288574 6.44168e-19)
(0.457751 -0.0281299 0)
(0.516524 -0.0274111 0)
(0.574954 -0.0266813 0)
(0.6329 -0.0259085 0)
(0.690158 -0.0250338 0)
(0.746101 -0.0239454 0)
(0.800422 -0.0223689 0)
(0.848225 -0.0196561 -1.1364e-18)
(0.895338 -0.0142304 0)
(0.888642 0.00304484 0)
(0.00474135 -0.0327277 1.9427e-18)
(0.010929 -0.033613 -1.11402e-18)
(0.0112051 -0.0213248 0)
(0.0085731 -0.00795293 3.5023e-19)
(0.00349112 0.00476303 0)
(-0.0037124 0.0159567 1.37216e-19)
(-0.0130364 0.0251723 -2.51483e-19)
(-0.0243903 0.0323862 -2.32621e-19)
(-0.0376483 0.0378811 0)
(-0.0526101 0.0420722 -1.9949e-19)
(-0.0690465 0.0453782 -9.23929e-20)
(-0.0867791 0.0481265 0)
(-0.105678 0.0505393 0)
(-0.12565 0.0527405 0)
(-0.14663 0.0547987 0)
(-0.168576 0.056739 -6.52104e-20)
(-0.191462 0.0585771 0)
(-0.21527 0.0603117 1.16337e-19)
(-0.239991 0.0619452 0)
(-0.265616 0.0634705 0)
(-0.292155 0.0648861 -1.00961e-19)
(-0.319615 0.0661873 0)
(-0.348032 0.0673682 9.35234e-20)
(-0.377441 0.0684335 -4.5405e-20)
(-0.407928 0.0693817 4.41742e-20)
(-0.439596 0.0702348 -4.32053e-20)
(-0.472595 0.0710004 -4.25297e-20)
(-0.507091 0.0717128 0)
(-0.543292 0.0723778 0)
(-0.581348 0.0730367 4.27533e-20)
(-0.621233 0.0737431 -4.31267e-20)
(-0.662379 0.0747282 0)
(-0.703072 0.0765883 0)
(-0.746604 0.0792475 4.94684e-20)
(-0.790251 0.0824562 0)
(-0.834011 0.0864 0)
(-0.875295 0.0891933 -4.32371e-20)
(-0.914859 0.0909957 0)
(-0.953474 0.0919244 3.95231e-20)
(-0.991593 0.0918443 -7.47679e-20)
(-1.02889 0.0912272 0)
(-1.06686 0.0906677 0)
(-1.10645 0.0900635 -1.33498e-19)
(-1.14685 0.0897581 -1.29998e-19)
(-1.18682 0.0897281 -1.26722e-19)
(-1.2252 0.0894105 6.17906e-20)
(-1.26302 0.0888343 -6.06969e-20)
(-1.30041 0.0880821 -1.78038e-19)
(-1.33739 0.0872063 1.16207e-19)
(-1.37401 0.086244 5.71082e-20)
(-1.4103 0.0852193 0)
(-1.44627 0.0841501 -5.49984e-20)
(-1.48195 0.08305 5.37332e-20)
(-1.51732 0.0819269 0)
(-1.55239 0.080786 0)
(-1.58715 0.0796288 0)
(-1.62159 0.078456 -5.04814e-20)
(-1.6557 0.077266 0)
(-1.68947 0.0760574 9.75475e-20)
(-1.72287 0.0748271 0)
(-1.7559 0.0735731 9.46241e-20)
(-1.78853 0.0722923 0)
(-1.82074 0.0709823 -9.18801e-20)
(-1.85251 0.0696401 0)
(-1.88381 0.0682639 8.92871e-20)
(-1.91462 0.0668511 -4.38932e-20)
(-1.94492 0.0654004 0)
(-1.97467 0.0639101 -8.56265e-20)
(-2.00384 0.0623792 -4.23469e-20)
(-2.03241 0.0608068 -4.17692e-20)
(-2.06035 0.0591924 0)
(-2.08762 0.0575356 -4.04204e-20)
(-2.1142 0.0558367 -4.00853e-20)
(-2.14004 0.0540957 0)
(-2.16513 0.0523134 3.89928e-20)
(-2.18942 0.0504902 -7.67151e-20)
(-2.21289 0.0486276 0)
(-2.23551 0.0467266 -3.73788e-20)
(-2.25723 0.0447888 0)
(-2.27803 0.0428153 1.0877e-19)
(-2.29788 0.0408079 0)
(-2.31674 0.0387682 -1.05568e-19)
(-2.33458 0.0366979 -3.46943e-20)
(-2.35138 0.0345983 3.4035e-20)
(-2.3671 0.0324716 6.69958e-20)
(-2.38171 0.0303189 -6.59126e-20)
(-2.39518 0.0281422 0)
(-2.40748 0.0259421 0)
(-2.41859 0.0237197 0)
(-2.42848 0.0214744 1.84576e-19)
(-2.43713 0.0192048 6.0384e-20)
(-2.44452 0.0169101 -5.91938e-20)
(-2.45064 0.0145893 0)
(-2.45549 0.0122392 -5.67651e-20)
(-2.45907 0.00985289 5.55125e-20)
(-2.46143 0.00742843 5.42479e-20)
(-2.46263 0.00499038 0)
(-2.46277 0.00261138 0)
(-2.46196 0.000379235 0)
(-2.45978 -0.00173616 4.8908e-20)
(-2.45619 -0.00380911 0)
(-2.45118 -0.00585246 -9.23499e-20)
(-2.44471 -0.00787445 -1.34089e-19)
(-2.43677 -0.00987571 8.6534e-20)
(-2.42736 -0.011855 0)
(-2.41646 -0.0138106 4.04065e-20)
(-2.40407 -0.0157402 0)
(-2.39018 -0.0176423 7.42516e-20)
(-2.37479 -0.0195147 -3.57154e-20)
(-2.3579 -0.0213561 -3.4094e-20)
(-2.33951 -0.0231642 0)
(-2.31962 -0.0249382 -9.13417e-20)
(-2.29823 -0.0266758 5.76031e-20)
(-2.27535 -0.028376 2.67839e-20)
(-2.25099 -0.0300368 0)
(-2.22515 -0.0316573 2.31563e-20)
(-2.19785 -0.0332355 6.44924e-20)
(-2.16909 -0.0347702 0)
(-2.13889 -0.0362598 3.56201e-20)
(-2.10726 -0.0377043 3.17379e-20)
(-2.07423 -0.0391028 2.77929e-20)
(-2.03981 -0.0404548 0)
(-2.00403 -0.0417575 0)
(-1.9669 -0.0430101 0)
(-1.92843 -0.0442097 -6.087e-21)
(-1.88867 -0.0453574 -3.14831e-21)
(-1.84764 -0.0464519 0)
(-1.80535 -0.0474954 1.60345e-21)
(-1.76185 -0.0484865 6.05813e-21)
(-1.71716 -0.0494274 0)
(-1.67131 -0.050317 1.60792e-20)
(-1.62433 -0.0511524 3.96117e-20)
(-1.57627 -0.051927 -2.54754e-20)
(-1.52715 -0.0526484 -2.83198e-20)
(-1.47702 -0.0533197 0)
(-1.4259 -0.0539386 0)
(-1.37385 -0.0545013 0)
(-1.32089 -0.0550107 -5.00738e-20)
(-1.26708 -0.0554668 5.30798e-20)
(-1.21246 -0.0558714 1.18585e-19)
(-1.15706 -0.0562252 -6.55958e-20)
(-1.10095 -0.0565297 6.87153e-20)
(-1.04415 -0.0567861 7.62607e-20)
(-0.986714 -0.0569954 0)
(-0.928685 -0.0571589 0)
(-0.870105 -0.0572775 -9.04726e-20)
(-0.811019 -0.0573527 0)
(-0.75147 -0.0573861 0)
(-0.6915 -0.0573794 2.17262e-19)
(-0.631153 -0.0573344 0)
(-0.570469 -0.0572531 1.1914e-19)
(-0.509489 -0.0571376 -1.27413e-19)
(-0.448255 -0.0569899 0)
(-0.386803 -0.0568124 1.37125e-19)
(-0.325173 -0.0566065 0)
(-0.2634 -0.0563749 0)
(-0.20152 -0.0561189 -1.58067e-19)
(-0.139566 -0.0558393 3.264e-19)
(-0.0775726 -0.0555365 -1.7077e-19)
(-0.0155702 -0.0552115 0)
(0.0464227 -0.0548622 0)
(0.108386 -0.054486 1.79473e-19)
(0.170311 -0.0540409 0)
(0.232133 -0.0533976 1.83089e-19)
(0.293763 -0.0525832 0)
(0.355198 -0.051743 0)
(0.416467 -0.0509223 0)
(0.477564 -0.0501264 1.92261e-19)
(0.538482 -0.0493493 0)
(0.599211 -0.0485812 -1.95222e-19)
(0.659728 -0.0478076 0)
(0.719991 -0.0470076 0)
(0.779927 -0.0461464 3.96228e-19)
(0.839398 -0.0451654 -3.98494e-19)
(0.898194 -0.0439508 0)
(0.955802 -0.0422908 0)
(1.01181 -0.0396498 0)
(1.06328 -0.0350403 1.22749e-18)
(1.11332 -0.0250876 0)
(1.14007 -0.00106125 -8.52632e-19)
(0.000355091 -0.0415855 -8.01862e-22)
(-0.00161678 -0.0290634 1.08388e-18)
(-0.0076326 -0.0103713 0)
(-0.0155809 0.0069179 -4.43456e-19)
(-0.025036 0.0225299 0)
(-0.035689 0.0363883 0)
(-0.047524 0.0483979 5.28368e-23)
(-0.0606319 0.0585446 1.37455e-19)
(-0.0750934 0.0669704 1.29376e-19)
(-0.0909325 0.073945 1.2239e-19)
(-0.108113 0.0797917 0)
(-0.126565 0.0848126 0)
(-0.14621 0.0892553 -1.04463e-19)
(-0.166976 0.093296 -1.98785e-19)
(-0.188806 0.0970541 1.8949e-19)
(-0.211659 0.100601 0)
(-0.235511 0.103983 1.7329e-19)
(-0.260347 0.107225 -8.32273e-20)
(-0.286165 0.110349 0)
(-0.312964 0.113366 1.54145e-19)
(-0.340761 0.116292 7.45827e-20)
(-0.369568 0.119146 -1.442e-19)
(-0.399414 0.12195 -7.01423e-20)
(-0.430324 0.124737 0)
(-0.462339 0.127547 1.32972e-19)
(-0.49549 0.130431 1.30253e-19)
(-0.529801 0.133441 0)
(-0.565238 0.136628 1.26569e-19)
(-0.601685 0.140014 0)
(-0.638908 0.143605 1.25197e-19)
(-0.676512 0.147301 6.27332e-20)
(-0.714025 0.150839 0)
(-0.751134 0.15367 0)
(-0.788462 0.154612 0)
(-0.826134 0.154437 0)
(-0.863663 0.155137 0)
(-0.900296 0.155964 0)
(-0.935956 0.156418 1.06502e-19)
(-0.970746 0.156137 -1.54066e-19)
(-1.0049 0.155017 0)
(-1.03858 0.153329 0)
(-1.07209 0.150893 0)
(-1.10599 0.147773 -4.24839e-23)
(-1.14029 0.145276 8.89157e-20)
(-1.1743 0.143428 1.73928e-19)
(-1.20768 0.141562 -1.7029e-19)
(-1.2407 0.139705 -8.33761e-20)
(-1.27343 0.13786 8.18616e-20)
(-1.30592 0.136016 -1.29392e-22)
(-1.33818 0.134165 7.87139e-20)
(-1.37022 0.132302 0)
(-1.40206 0.130426 7.59492e-20)
(-1.43368 0.128538 -1.50376e-22)
(-1.46511 0.126636 0)
(-1.49632 0.124719 0)
(-1.52731 0.122786 -7.10477e-20)
(-1.55807 0.120832 0)
(-1.58859 0.118854 0)
(-1.61885 0.116847 6.76442e-20)
(-1.64884 0.114807 1.33573e-19)
(-1.67853 0.11273 -6.59568e-20)
(-1.70791 0.11061 0)
(-1.73695 0.108445 6.40572e-20)
(-1.76563 0.10623 0)
(-1.79392 0.103963 6.19412e-20)
(-1.82181 0.10164 6.13665e-20)
(-1.84926 0.0992586 -1.20715e-19)
(-1.87624 0.0968178 -5.93684e-20)
(-1.90273 0.0943158 0)
(-1.9287 0.0917517 1.15723e-19)
(-1.95411 0.0891249 0)
(-1.97894 0.0864354 1.68886e-19)
(-2.00316 0.0836836 1.10918e-19)
(-2.02672 0.08087 1.09344e-19)
(-2.04961 0.0779958 -1.07781e-19)
(-2.07178 0.0750623 1.59449e-19)
(-2.09321 0.0720715 0)
(-2.11386 0.0690252 0)
(-2.13369 0.0659258 -1.01575e-19)
(-2.15269 0.0627756 -1.50129e-19)
(-2.17081 0.0595773 0)
(-2.18802 0.0563336 4.85342e-20)
(-2.20429 0.0530473 0)
(-2.21959 0.0497211 -1.40715e-19)
(-2.23389 0.0463583 -1.17531e-22)
(-2.24716 0.0429617 1.03739e-22)
(-2.25937 0.0395345 8.8959e-20)
(-2.27049 0.0360795 0)
(-2.28051 0.0325998 -8.56748e-20)
(-2.28938 0.0290982 -4.5552e-23)
(-2.29711 0.0255778 0)
(-2.30367 0.0220434 0)
(-2.30904 0.018502 0)
(-2.31323 0.0149634 7.70955e-20)
(-2.31623 0.0114412 0)
(-2.31805 0.00795437 0)
(-2.31868 0.00452578 0)
(-2.31808 0.00116478 0)
(-2.3162 -0.00215889 0)
(-2.31298 -0.00546646 6.58935e-20)
(-2.30839 -0.0087486 0)
(-2.30241 -0.0120017 6.17506e-20)
(-2.29502 -0.0152237 5.96945e-20)
(-2.28621 -0.0184115 -5.76094e-20)
(-2.27597 -0.0215619 0)
(-2.26429 -0.0246712 -5.33515e-20)
(-2.25116 -0.0277362 0)
(-2.23657 -0.0307535 -4.89751e-20)
(-2.22053 -0.0337201 4.67422e-20)
(-2.20303 -0.0366331 1.34007e-19)
(-2.18407 -0.0394899 0)
(-2.16365 -0.0422875 1.20231e-19)
(-2.14178 -0.0450235 3.81808e-20)
(-2.11846 -0.0476954 0)
(-2.09369 -0.0503008 6.61796e-20)
(-2.06749 -0.0528373 6.13356e-20)
(-2.03987 -0.0553025 -8.42563e-20)
(-2.01083 -0.057694 0)
(-1.98038 -0.0600101 -2.28077e-20)
(-1.94855 -0.0622496 -2.02607e-20)
(-1.91535 -0.0644113 -5.39731e-20)
(-1.8808 -0.0664933 0)
(-1.84492 -0.0684931 0)
(-1.80772 -0.0704078 0)
(-1.76923 -0.0722354 -8.16536e-21)
(-1.72947 -0.0739749 0)
(-1.68847 -0.0756261 0)
(-1.64625 -0.0771897 -9.97103e-22)
(-1.60285 -0.0786662 -3.75386e-21)
(-1.55829 -0.0800564 0)
(-1.51259 -0.0813596 0)
(-1.46581 -0.0825719 -2.42747e-20)
(-1.41796 -0.0836887 0)
(-1.36908 -0.0847147 3.5629e-20)
(-1.31921 -0.0856531 4.01165e-20)
(-1.26838 -0.0865026 0)
(-1.21664 -0.0872602 0)
(-1.16402 -0.0879273 -5.73976e-20)
(-1.11056 -0.0885053 -1.29733e-21)
(-1.05631 -0.0889961 -1.31106e-21)
(-1.00131 -0.0894013 0)
(-0.945605 -0.0897229 -1.62864e-19)
(-0.889235 -0.0899625 0)
(-0.832244 -0.090122 0)
(-0.774674 -0.090203 0)
(-0.716568 -0.0902075 1.05762e-19)
(-0.657969 -0.0901376 0)
(-0.59892 -0.0899959 -2.32518e-19)
(-0.539463 -0.0897849 -1.23598e-19)
(-0.479639 -0.0895075 0)
(-0.419489 -0.0891665 -1.35501e-19)
(-0.359055 -0.0887652 0)
(-0.298374 -0.0883063 0)
(-0.237486 -0.0877937 -4.57171e-19)
(-0.176427 -0.0872298 3.15694e-19)
(-0.115233 -0.0866173 0)
(-0.0539377 -0.0859592 3.3934e-19)
(0.00742905 -0.0852602 -1.7618e-19)
(0.0688371 -0.0845225 0)
(0.130253 -0.0837467 0)
(0.191646 -0.0829294 0)
(0.252991 -0.0820733 -5.65783e-19)
(0.314277 -0.0811775 0)
(0.375493 -0.0802443 -1.95463e-19)
(0.436607 -0.0792781 0)
(0.497602 -0.0782956 0)
(0.558471 -0.0773195 0)
(0.619196 -0.0763537 0)
(0.679764 -0.0753922 0)
(0.740157 -0.0744236 0)
(0.800349 -0.0734284 -4.26887e-19)
(0.860299 -0.0723765 0)
(0.919934 -0.0712165 -2.19136e-19)
(0.979126 -0.0698606 6.61803e-19)
(1.03769 -0.0681468 0)
(1.09519 -0.0657709 0)
(1.15135 -0.0620842 -4.53517e-19)
(1.20421 -0.0558369 -4.60409e-19)
(1.25678 -0.0440165 4.65828e-19)
(1.29678 -0.0191085 4.79984e-19)
(-0.00460959 -0.0339941 -2.98717e-18)
(-0.0123315 -0.0123309 -1.3047e-18)
(-0.0222826 0.00974425 -4.72945e-19)
(-0.033812 0.0291396 -1.68583e-19)
(-0.0463429 0.0464956 0)
(-0.0595445 0.0620557 2.44062e-19)
(-0.0734569 0.0758823 -1.11559e-19)
(-0.0882133 0.0880137 0)
(-0.103935 0.0985533 -9.84568e-20)
(-0.120709 0.107684 0)
(-0.138578 0.11564 1.78464e-19)
(-0.157546 0.122666 0)
(-0.177594 0.128985 8.16838e-20)
(-0.198688 0.134776 1.56644e-19)
(-0.220795 0.140174 -1.50431e-19)
(-0.243884 0.145274 0)
(-0.267934 0.150144 -1.39417e-19)
(-0.292924 0.154826 0)
(-0.318843 0.159352 0)
(-0.345679 0.163746 -1.25935e-19)
(-0.373421 0.168025 0)
(-0.40205 0.172208 1.69995e-22)
(-0.431546 0.176312 0)
(-0.461871 0.180356 0)
(-0.492977 0.184353 -2.19855e-22)
(-0.524786 0.188312 -1.06742e-19)
(-0.557192 0.192224 -1.04111e-19)
(-0.590045 0.196055 -1.02132e-19)
(-0.623145 0.199731 0)
(-0.65626 0.203126 -1.96461e-19)
(-0.689155 0.206048 0)
(-0.721675 0.208251 -9.48279e-20)
(-0.753817 0.209461 0)
(-0.785788 0.209511 0)
(-0.817736 0.20877 8.84721e-20)
(-0.849557 0.20793 0)
(-0.881019 0.207025 -8.35336e-20)
(-0.912025 0.205925 -2.14236e-23)
(-0.942607 0.204495 1.58266e-19)
(-0.972867 0.202683 -1.54208e-19)
(-1.00288 0.200531 0)
(-1.03275 0.197995 0)
(-1.06263 0.19514 -7.17011e-20)
(-1.09254 0.192355 0)
(-1.12232 0.189747 -6.86617e-20)
(-1.1519 0.187175 6.72654e-20)
(-1.18134 0.184631 6.59469e-20)
(-1.21065 0.182116 0)
(-1.23985 0.179627 -6.35069e-20)
(-1.26892 0.177154 -6.23697e-20)
(-1.29786 0.174688 1.2246e-19)
(-1.32668 0.172222 -6.02344e-20)
(-1.35537 0.169749 -5.92284e-20)
(-1.38393 0.167264 0)
(-1.41233 0.16476 0)