# f_l  POINT_DATA 1987
#  x  y  z  f_l
0.000375 0.000375 0 0.5
0.0015 0.00025 5.72608e-20 0.5
0.00025 0.0015 0 0.5
0.0025 0.00025 -1.6386e-20 0.5
0.00025 0.0025 1.89735e-19 0.5
0.00025 0.00025 0.0025 0.5
0.00025 0.00025 -0.0025 0.5
0.00075 0.00025 0.0025 0.5
0.00025 0.00075 0.0025 0.5
0.00025 0.00075 -0.0025 0.5
0.00075 0.00025 -0.0025 0.5
0.001 0.0005 -0.0025 0.5
0.001 0.0005 0.0025 0.5
0.0005 0.001 0.0025 0.5
0.0005 0.001 -0.0025 0.5
0.00125 0.00025 0.0025 0.5
0.00025 0.00125 -0.0025 0.5
0.00125 0.00025 -0.0025 0.5
0.00025 0.00125 0.0025 0.5
0.00175 0.00025 0.0025 0.5
0.00025 0.00175 -0.0025 0.5
0.00175 0.00025 -0.0025 0.5
0.00025 0.00175 0.0025 0.5
0.002 0.0005 -0.0025 0.5
0.002 0.0005 0.0025 0.5
0.0005 0.002 0.0025 0.5
0.0005 0.002 -0.0025 0.5
0.00025 0.00225 0.0025 0.5
0.00025 0.00225 -0.0025 0.5
0.00225 0.00025 0.0025 0.5
0.00225 0.00025 -0.0025 0.5
0.0035 0.00025 -1.38704e-19 0.5
0.00025 0.0035 -1.89735e-19 0.5
0.00025 0.00275 0.0025 0.5
0.00025 0.00275 -0.0025 0.5
0.00275 0.00025 0.0025 0.5
0.00275 0.00025 -0.0025 0.5
0.0005 0.003 -0.0025 0.5
0.003 0.0005 -0.0025 0.5
0.003 0.0005 0.0025 0.5
0.0005 0.003 0.0025 0.5
0.00025 0.00325 0.0025 0.5
0.00325 0.00025 0.0025 0.5
0.00025 0.00325 -0.0025 0.5
0.00325 0.00025 -0.0025 0.5
0.0045 0.00025 -5.72243e-20 0.5
0.00025 0.0045 0 0.5
0.00025 0.00375 0.0025 0.5
0.00375 0.00025 0.0025 0.5
0.00025 0.00375 -0.0025 0.5
0.00375 0.00025 -0.0025 0.5
0.004 0.0005 -0.0025 0.5
0.004 0.0005 0.0025 0.5
0.0005 0.004 0.0025 0.5
0.0005 0.004 -0.0025 0.5
0.00025 0.00425 0.0025 0.5
0.00425 0.00025 0.0025 0.5
0.00025 0.00425 -0.0025 0.5
0.00425 0.00025 -0.0025 0.5
0.00475 0.00025 0.0025 0.5
0.00475 0.00025 -0.0025 0.5
0.00025 0.00475 0.0025 0.5
0.00025 0.00475 -0.0025 0.5
0.00025 0.0055 0 0.5
0.0055 0.00025 -2.36936e-21 0.5
0.005 0.0005 -0.0025 0.5
0.005 0.0005 0.0025 0.5
0.0005 0.005 0.0025 0.5
0.0005 0.005 -0.0025 0.5
0.00025 0.00525 -0.0025 0.5
0.00525 0.00025 0.0025 0.5
0.00025 0.00525 0.0025 0.5
0.00525 0.00025 -0.0025 0.5
0.00025 0.00575 -0.0025 0.5
0.00575 0.00025 0.0025 0.5
0.00575 0.00025 -0.0025 0.5
0.00025 0.00575 0.0025 0.5
0.0065 0.00025 5.2773e-20 0.5
0.00025 0.0065 0 0.5
0.0005 0.006 0.0025 0.5
0.0005 0.006 -0.0025 0.5
0.006 0.0005 -0.0025 0.5
0.006 0.0005 0.0025 0.5
0.00625 0.00025 0.0025 0.5
0.00025 0.00625 0.0025 0.5
0.00025 0.00625 -0.0025 0.5
0.00625 0.00025 -0.0025 0.5
0.00025 0.00675 0.0025 0.5
0.00675 0.00025 0.0025 0.5
0.00025 0.00675 -0.0025 0.5
0.00675 0.00025 -0.0025 0.5
0.007 0.0005 -0.0025 0.5
0.0005 0.007 0.0025 0.5
0.0005 0.007 -0.0025 0.5
0.007 0.0005 0.0025 0.5
0.0075 0.00025 4.99235e-20 0.5
0.00025 0.0075 -2.43945e-19 0.5
0.00025 0.00725 0.0025 0.5
0.00025 0.00725 -0.0025 0.5
0.00725 0.00025 -0.0025 0.5
0.00725 0.00025 0.0025 0.5
0.00025 0.00775 0.0025 0.5
0.00025 0.00775 -0.0025 0.5
0.00775 0.00025 -0.0025 0.5
0.00775 0.00025 0.0025 0.5
0.008 0.0005 -0.0025 0.5
0.008 0.0005 0.0025 0.5
0.0005 0.008 0.0025 0.5
0.0005 0.008 -0.0025 0.5
0.0085 0.00025 -2.36936e-21 0.5
0.00025 0.0085 2.43945e-19 0.5
0.00025 0.00825 0.0025 0.5
0.00825 0.00025 0.0025 0.5
0.00025 0.00825 -0.0025 0.5
0.00825 0.00025 -0.0025 0.5
0.00875 0.00025 0.0025 0.5
0.00025 0.00875 -0.0025 0.5
0.00025 0.00875 0.0025 0.5
0.00875 0.00025 -0.0025 0.5
0.009 0.0005 -0.0025 0.5
0.009 0.0005 0.0025 0.5
0.0005 0.009 0.0025 0.5
0.0005 0.009 -0.0025 0.5
0.0095 0.00025 -8.67352e-20 0.5
0.00025 0.0095 0 0.5
0.00025 0.00925 -0.0025 0.5
0.00025 0.00925 0.0025 0.5
0.00925 0.00025 0.0025 0.5
0.00925 0.00025 -0.0025 0.5
0.00025 0.00975 0.0025 0.5
0.00975 0.00025 0.0025 0.5
0.00025 0.00975 -0.0025 0.5
0.00975 0.00025 -0.0025 0.5
0.01 0.0005 -0.0025 0.5
0.01 0.0005 0.0025 0.5
0.0005 0.01 0.0025 0.5
0.0005 0.01 -0.0025 0.5
0.00025 0.0105 0 0.5
0.0105 0.00025 -7.98788e-20 0.5
0.01025 0.00025 0.0025 0.5
0.00025 0.01025 -0.0025 0.5
0.00025 0.01025 0.0025 0.5
0.01025 0.00025 -0.0025 0.5
0.01075 0.00025 0.0025 0.5
0.00025 0.01075 -0.0025 0.5
0.00025 0.01075 0.0025 0.5
0.01075 0.00025 -0.0025 0.5
0.011 0.0005 -0.0025 0.5
0.011 0.0005 0.0025 0.5
0.0005 0.011 0.0025 0.5
0.0005 0.011 -0.0025 0.5
0.0115 0.00025 0 0.5
0.00025 0.0115 0 0.5
0.00025 0.01125 0.0025 0.5
0.01125 0.00025 0.0025 0.5
0.00025 0.01125 -0.0025 0.5
0.01125 0.00025 -0.0025 0.5
0.00025 0.01175 0.0025 0.5
0.01175 0.00025 0.0025 0.5
0.00025 0.01175 -0.0025 0.5
0.01175 0.00025 -0.0025 0.5
0.0005 0.012 0.0025 0.5
0.0005 0.012 -0.0025 0.5
0.012 0.0005 -0.0025 0.5
0.012 0.0005 0.0025 0.5
0.0125 0.00025 -6.56015e-22 0.5
0.00025 0.0125 0 0.5
0.01225 0.00025 0.0025 0.5
0.00025 0.01225 -0.0025 0.5
0.01225 0.00025 -0.0025 0.5
0.00025 0.01225 0.0025 0.5
0.01275 0.00025 0.0025 0.5
0.00025 0.01275 -0.0025 0.5
0.01275 0.00025 -0.0025 0.5
0.00025 0.01275 0.0025 0.5
0.013 0.0005 -0.0025 0.5
0.013 0.0005 0.0025 0.5
0.0005 0.013 0.0025 0.5
0.0005 0.013 -0.0025 0.5
0.01325 0.00025 0.0025 0.5
0.01325 0.00025 -0.0025 0.5
0.00025 0.01325 0.0025 0.5
0.00025 0.01325 -0.0025 0.5
0.00025 0.0135 0 0.5
0.0135 0.00025 0 0.5
0.01375 0.00025 0.0025 0.5
0.01375 0.00025 -0.0025 0.5
0.00025 0.01375 0.0025 0.5
0.00025 0.01375 -0.0025 0.5
0.014 0.0005 -0.0025 0.5
0.014 0.0005 0.0025 0.5
0.0005 0.014 0.0025 0.5
0.0005 0.014 -0.0025 0.5
0.00025 0.01425 0.0025 0.5
0.01425 0.00025 0.0025 0.5
0.00025 0.01425 -0.0025 0.5
0.01425 0.00025 -0.0025 0.5
0.00025 0.0145 0 0.5
0.0145 0.00025 -8.63823e-20 0.5
0.00025 0.01475 0.0025 0.5
0.01475 0.00025 0.0025 0.5
0.00025 0.01475 -0.0025 0.5
0.01475 0.00025 -0.0025 0.5
0.015 0.0005 -0.0025 0.5
0.015 0.0005 0.0025 0.5
0.0005 0.015 0.0025 0.5
0.0005 0.015 -0.0025 0.5
0.00025 0.01525 0.0025 0.5
0.01525 0.00025 0.0025 0.5
0.00025 0.01525 -0.0025 0.5
0.01525 0.00025 -0.0025 0.5
0.0155 0.00025 -7.83693e-20 0.5
0.00025 0.0155 0 0.5
0.00025 0.01575 0.0025 0.5
0.01575 0.00025 0.0025 0.5
0.00025 0.01575 -0.0025 0.5
0.01575 0.00025 -0.0025 0.5
0.016 0.0005 -0.0025 0.5
0.016 0.0005 0.0025 0.5
0.0005 0.016 0.0025 0.5
0.0005 0.016 -0.0025 0.5
0.00025 0.01625 0.0025 0.5
0.01625 0.00025 0.0025 0.5
0.00025 0.01625 -0.0025 0.5
0.01625 0.00025 -0.0025 0.5
0.0165 0.00025 2.36936e-21 0.5
0.00025 0.0165 0 0.5
0.00025 0.01675 0.0025 0.5
0.01675 0.00025 0.0025 0.5
0.00025 0.01675 -0.0025 0.5
0.01675 0.00025 -0.0025 0.5
0.0005 0.017 0.0025 0.5
0.0005 0.017 -0.0025 0.5
0.017 0.00064501 -0.0025 0.5
0.017 0.00064501 0.0025 0.5
0.00025 0.01725 -0.0025 0.5
0.00025 0.01725 0.0025 0.5
0.0174673 0.00055138 -1.06202e-19 0.5
0.00025 0.0175 0 0.5
0.0174618 0.000538177 0.0025 0.5
0.0174618 0.000538177 -0.0025 0.5
0.0175504 0.001 0.0025 0.5
0.0175504 0.001 -0.0025 0.5
0.0176937 0.00150947 4.70035e-22 0.5
0.0177477 0.00233673 1.06215e-20 0.5
0.0176773 0.00132274 0.0025 0.5
0.0176773 0.00132274 -0.0025 0.5
0.00025 0.01775 -0.0025 0.5
0.00025 0.01775 0.0025 0.5
0.0176466 0.002 0.0025 0.5
0.0176466 0.002 -0.0025 0.5
0.0177057 0.00170566 0.0025 0.5
0.0177057 0.00170566 -0.0025 0.5
0.0177664 0.00276635 -0.00133175 0.5
0.0177664 0.00276635 0.00133175 0.5
0.0177449 0.0022551 0.0025 0.5
0.0177449 0.0022551 -0.0025 0.5
0.0177024 0.003 0.0025 0.5
0.0177024 0.003 -0.0025 0.5
0.0177664 0.00276635 0.0025 0.5
0.0177664 0.00276635 -0.0025 0.5
0.0178062 0.00319384 0.00153081 0.5
0.0178062 0.00319384 -0.00153081 0.5
0.0178198 0.0035 -1.61644e-19 0.5
0.0005 0.018 0.0025 0.5
0.0005 0.018 -0.0025 0.5
0.0178062 0.00319384 0.0025 0.5
0.0178062 0.00319384 -0.0025 0.5
0.0178397 0.00383972 -0.00169858 0.5
0.0178397 0.00383972 0.00169858 0.5
0.0177782 0.004 -0.0025 0.5
0.0177782 0.004 0.0025 0.5
0.0178397 0.00383972 0.0025 0.5
0.0178397 0.00383972 -0.0025 0.5
0.00025 0.01825 0.0025 0.5
0.00025 0.01825 -0.0025 0.5
0.0178717 0.0041283 -0.00185852 0.5
0.0178717 0.0041283 0.00185852 0.5
0.0178912 0.0045 -6.17789e-20 0.5
0.00025 0.0185 -4.33681e-19 0.5
0.0178717 0.0041283 0.0025 0.5
0.0178717 0.0041283 -0.0025 0.5
0.0179211 0.00492107 -0.00210536 0.5
0.0179211 0.00492107 0.00210536 0.5
0.0178795 0.005 0.0025 0.5
0.0178795 0.005 -0.0025 0.5
0.0179211 0.00492107 0.0025 0.5
0.0179211 0.00492107 -0.0025 0.5
0.0179395 0.00506047 0.00219764 0.5
0.0179395 0.00506047 -0.00219764 0.5
0.0179668 0.0055 5.59026e-20 0.5
0.0179395 0.00506047 0.0025 0.5
0.0179395 0.00506047 -0.0025 0.5
0.00025 0.01875 0.0025 0.5
0.00025 0.01875 -0.0025 0.5
0.0179861 0.00598607 -0.00243033 0.5
0.0179861 0.00598607 0.00243033 0.5
0.0179748 0.006 0.0025 0.5
0.0179748 0.006 -0.0025 0.5
0.0179861 0.00598607 0.0025 0.5
0.0179861 0.00598607 -0.0025 0.5
0.0179878 0.00601224 0.00243879 0.5
0.0179878 0.00601224 -0.00243879 0.5
0.0179878 0.00601224 0.0025 0.5
0.0179878 0.00601224 -0.0025 0.5
0.0180061 0.0065 2.49516e-19 0.5
0.0005 0.019 0.0025 0.5
0.0005 0.019 -0.0025 0.5
0.018 0.00647371 -0.0025 0.5
0.018 0.00647371 0.0025 0.5
0.00025 0.01925 0.0025 0.5
0.00025 0.01925 -0.0025 0.5
0.0180139 0.00698611 -0.00243055 0.5
0.0180139 0.00698611 0.00243055 0.5
0.0180139 0.00698611 0.0025 0.5
0.0180139 0.00698611 -0.0025 0.5
0.0180148 0.00701483 -0.00242587 0.5
0.0180148 0.00701483 0.00242587 0.5
0.0180148 0.00701483 0.0025 0.5
0.0180148 0.00701483 -0.0025 0.5
0.0180279 0.007 0.0025 0.5
0.0180279 0.007 -0.0025 0.5
0.00025 0.0195 4.33681e-19 0.5
0.0180229 0.0075 -5.17525e-20 0.5
0.0180316 0.00796842 0.00234212 0.5
0.0180316 0.00796842 -0.00234212 0.5
0.0180316 0.00796842 0.0025 0.5
0.0180316 0.00796842 -0.0025 0.5
0.0180341 0.00803406 -0.00232969 0.5
0.0180341 0.00803406 0.00232969 0.5
0.0180341 0.00803406 -0.0025 0.5
0.0180341 0.00803406 0.0025 0.5
0.00025 0.01975 0.0025 0.5
0.00025 0.01975 -0.0025 0.5
0.0180615 0.008 0.0025 0.5
0.0180615 0.008 -0.0025 0.5
0.0180431 0.0085 9.08597e-20 0.5
0.0005 0.02 0.0025 0.5
0.0005 0.02 -0.0025 0.5
0.0180478 0.00895218 -0.00226088 0.5
0.0180478 0.00895218 0.00226088 0.5
0.0180478 0.00895218 0.0025 0.5
0.0180478 0.00895218 -0.0025 0.5
0.0180499 0.00904991 -0.00225047 0.5
0.0180499 0.00904991 0.00225047 0.5
0.0180499 0.00904991 0.0025 0.5
0.0180499 0.00904991 -0.0025 0.5
0.018089 0.009 0.0025 0.5
0.018089 0.009 -0.0025 0.5
0.0180547 0.0095 3.66883e-19 0.5
0.00025 0.02025 0.0025 0.5
0.00025 0.02025 -0.0025 0.5
0.00025 0.0205 0 0.5
0.0180533 0.00994669 -0.00223347 0.5
0.0180533 0.00994669 0.00223347 0.5
0.0180533 0.00994669 0.0025 0.5
0.0180533 0.00994669 -0.0025 0.5
0.0180526 0.0100526 -0.00223688 0.5
0.0180526 0.0100526 0.00223688 0.5
0.0180526 0.0100526 -0.0025 0.5
0.0180526 0.0100526 0.0025 0.5
0.0180958 0.01 -0.0025 0.5
0.0180958 0.01 0.0025 0.5
0.0180512 0.0105 -5.49237e-19 0.5
0.00025 0.02075 -0.0025 0.5
0.00025 0.02075 0.0025 0.5
0.0005 0.021 0.0025 0.5
0.0005 0.021 -0.0025 0.5
0.0180439 0.0109561 0.00228058 0.5
0.0180439 0.0109561 -0.00228058 0.5
0.0180439 0.0109561 0.0025 0.5
0.0180439 0.0109561 -0.0025 0.5
0.0180412 0.0110412 -0.00229399 0.5
0.0180412 0.0110412 0.00229399 0.5
0.0180412 0.0110412 0.0025 0.5
0.0180412 0.0110412 -0.0025 0.5
0.0180783 0.011 0.0025 0.5
0.0180783 0.011 -0.0025 0.5
0.0180341 0.0115 4.08122e-21 0.5
0.00025 0.02125 0.0025 0.5
0.00025 0.02125 -0.0025 0.5
0.00025 0.0215 0 0.5
0.0180242 0.0119758 -0.00237924 0.5
0.0180242 0.0119758 0.00237924 0.5
0.0180242 0.0119758 0.0025 0.5
0.0180242 0.0119758 -0.0025 0.5
0.0180223 0.0120223 -0.00238872 0.5
0.0180223 0.0120223 0.00238872 0.5
0.0180223 0.0120223 0.0025 0.5
0.0180223 0.0120223 -0.0025 0.5
0.0180443 0.012 0.0025 0.5
0.0180443 0.012 -0.0025 0.5
0.00025 0.02175 0.0025 0.5
0.00025 0.02175 -0.0025 0.5
0.0180127 0.0125 7.21007e-21 0.5
0.0005 0.022 0.0025 0.5
0.0005 0.022 -0.0025 0.5
0.0180067 0.0129933 -0.00246659 0.5
0.0180067 0.0129933 0.00246659 0.5
0.0180067 0.0129933 0.0025 0.5
0.0180067 0.0129933 -0.0025 0.5
0.0180064 0.0130064 -0.00246816 0.5
0.0180064 0.0130064 0.00246816 0.5
0.0180064 0.0130064 0.0025 0.5
0.0180064 0.0130064 -0.0025 0.5
0.0180129 0.013 0.0025 0.5
0.0180129 0.013 -0.0025 0.5
0.00025 0.02225 0.0025 0.5
0.00025 0.02225 -0.0025 0.5
0.018 0.0131645 -0.0025 0.5
0.018 0.0131645 0.0025 0.5
0.0180005 0.0135 1.82083e-19 0.5
0.00025 0.0225 0 0.5
0.0179693 0.0139693 -0.0023465 0.5
0.0179693 0.0139693 0.0023465 0.5
0.00025 0.02275 0.0025 0.5
0.00025 0.02275 -0.0025 0.5
0.0179345 0.014 0.0025 0.5
0.0179345 0.014 -0.0025 0.5
0.0179693 0.0139693 -0.0025 0.5
0.0179693 0.0139693 0.0025 0.5
0.0179592 0.0140408 0.00229601 0.5
0.0179592 0.0140408 -0.00229601 0.5
0.0179592 0.0140408 0.0025 0.5
0.0179592 0.0140408 -0.0025 0.5
0.0179241 0.0145 8.10741e-20 0.5
0.0005 0.023 0.0025 0.5
0.0005 0.023 -0.0025 0.5
0.0179004 0.0149004 -0.00200218 0.5
0.0179004 0.0149004 0.00200218 0.5
0.00025 0.02325 0.0025 0.5
0.00025 0.02325 -0.0025 0.5
0.0178169 0.015 -0.0025 0.5
0.0178169 0.015 0.0025 0.5
0.0179004 0.0149004 0.0025 0.5
0.0179004 0.0149004 -0.0025 0.5
0.0178719 0.0151281 -0.00185939 0.5
0.0178719 0.0151281 0.00185939 0.5
0.00025 0.0235 0 0.5
0.0178719 0.0151281 -0.0025 0.5
0.0178719 0.0151281 0.0025 0.5
0.017847 0.0155 2.15925e-19 0.5
0.00025 0.02375 0.0025 0.5
0.00025 0.02375 -0.0025 0.5
0.0178321 0.0158321 -0.00166072 0.5
0.0178321 0.0158321 0.00166072 0.5
0.0178321 0.0158321 0.0025 0.5
0.0178321 0.0158321 -0.0025 0.5
0.0177315 0.016 0.0025 0.5
0.0177315 0.016 -0.0025 0.5
0.0177975 0.0162025 0.00148736 0.5
0.0177975 0.0162025 -0.00148736 0.5
0.0005 0.024 0.0025 0.5
0.0005 0.024 -0.0025 0.5
0.0177975 0.0162025 0.0025 0.5
0.0177975 0.0162025 -0.0025 0.5
0.0177829 0.0165 1.31296e-20 0.5
0.00025 0.02425 0.0025 0.5
0.00025 0.02425 -0.0025 0.5
0.0177758 0.0167758 0.00137877 0.5
0.0177758 0.0167758 -0.00137877 0.5
0.00025 0.0245 0 0.5
0.0177758 0.0167758 0.0025 0.5
0.0177758 0.0167758 -0.0025 0.5
0.0176792 0.017 -0.0025 0.5
0.0176792 0.017 0.0025 0.5
0.0177507 0.0172493 0.00125342 0.5
0.0177507 0.0172493 -0.00125342 0.5
0.00025 0.02475 0.0025 0.5
0.00025 0.02475 -0.0025 0.5
0.0177507 0.0172493 -0.0025 0.5
0.0177507 0.0172493 0.0025 0.5
0.0177445 0.0176633 -7.21092e-20 0.5
0.0005 0.025 0.0025 0.5
0.0005 0.025 -0.0025 0.5
0.0177449 0.0177449 0.0025 0.5
0.0177449 0.0177449 -0.0025 0.5
0.017664 0.018 -0.0025 0.5
0.017664 0.018 0.0025 0.5
0.00025 0.02525 -0.0025 0.5
0.00025 0.02525 0.0025 0.5
0.00025 0.0255 0 0.5
0.0177494 0.0183339 -5.47398e-19 0.5
0.0177491 0.0182509 0.0025 0.5
0.0177491 0.0182509 -0.0025 0.5
0.00025 0.02575 -0.0025 0.5
0.00025 0.02575 0.0025 0.5
0.0177757 0.0187757 -0.00137857 0.5
0.0177757 0.0187757 0.00137857 0.5
0.0177757 0.0187757 0.0025 0.5
0.0177757 0.0187757 -0.0025 0.5
0.0177287 0.019 0.0025 0.5
0.0177287 0.019 -0.0025 0.5
0.0005 0.026 0.0025 0.5
0.0005 0.026 -0.0025 0.5
0.0178409 0.0191591 0.00170429 0.5
0.0178409 0.0191591 -0.00170429 0.5
0.0178409 0.0191591 0.0025 0.5
0.0178409 0.0191591 -0.0025 0.5
0.00025 0.02625 0.0025 0.5
0.00025 0.02625 -0.0025 0.5
0.0178675 0.0195 6.91277e-19 0.5
0.00025 0.0265 0 0.5
0.00025 0.02675 0.0025 0.5
0.00025 0.02675 -0.0025 0.5
0.0179318 0.0199318 -0.00215884 0.5
0.0179318 0.0199318 0.00215884 0.5
0.0179318 0.0199318 0.0025 0.5
0.0179318 0.0199318 -0.0025 0.5
0.017907 0.02 0.0025 0.5
0.017907 0.02 -0.0025 0.5
0.0179579 0.0200421 0.00228971 0.5
0.0179579 0.0200421 -0.00228971 0.5
0.0179579 0.0200421 0.0025 0.5
0.0179579 0.0200421 -0.0025 0.5
0.0005 0.027 0.0025 0.5
0.0005 0.027 -0.0025 0.5
0.0180132 0.0205 2.88275e-19 0.5
0.00025 0.02725 0.0025 0.5
0.00025 0.02725 -0.0025 0.5
0.018 0.0204743 -0.0025 0.5
0.018 0.0204743 0.0025 0.5
0.00025 0.0275 0 0.5
0.0180485 0.0209515 -0.00225767 0.5
0.0180485 0.0209515 0.00225767 0.5
0.0180485 0.0209515 -0.0025 0.5
0.0180485 0.0209515 0.0025 0.5
0.0181018 0.021 -0.0025 0.5
0.0181018 0.021 0.0025 0.5
0.0180682 0.0210682 -0.00215884 0.5
0.0180682 0.0210682 0.00215884 0.5
0.00025 0.02775 0.0025 0.5
0.00025 0.02775 -0.0025 0.5
0.0180682 0.0210682 -0.0025 0.5
0.0180682 0.0210682 0.0025 0.5
0.0181082 0.0215 -5.62575e-19 0.5
0.0005 0.028 0.0025 0.5
0.0005 0.028 -0.0025 0.5
0.00025 0.02825 0.0025 0.5
0.00025 0.02825 -0.0025 0.5
0.0181842 0.0218158 -0.0015789 0.5
0.0181842 0.0218158 0.0015789 0.5
0.00025 0.0285 0 0.5
0.0181842 0.0218158 0.0025 0.5
0.0181842 0.0218158 -0.0025 0.5
0.0183758 0.022 0.0025 0.5
0.0183758 0.022 -0.0025 0.5
0.00025 0.02875 0.0025 0.5
0.00025 0.02875 -0.0025 0.5
0.0005 0.029 0.0025 0.5
0.0005 0.029 -0.0025 0.5
0.0186314 0.0225082 2.10193e-19 0.5
0.0185956 0.0224044 -0.0025 0.5
0.0185956 0.0224044 0.0025 0.5
0.00025 0.02925 0.0025 0.5
0.00025 0.02925 -0.0025 0.5
0.00025 0.0295 -1.6263e-19 0.5
0.0187207 0.0227207 -0.0025 0.5
0.0187207 0.0227207 0.0025 0.5
0.0188082 0.023 0.0025 0.5
0.0188082 0.023 -0.0025 0.5
0.00025 0.02975 0.0025 0.5
0.00025 0.02975 -0.0025 0.5
0.0189213 0.0230787 0.00210653 0.5
0.0189213 0.0230787 -0.00210653 0.5
0.0189213 0.0230787 0.0025 0.5
0.0189213 0.0230787 -0.0025 0.5
0.0005 0.03 0.0025 0.5
0.0005 0.03 -0.0025 0.5
0.0190278 0.0235 7.82631e-21 0.5
0.019 0.0235154 -0.0025 0.5
0.019 0.0235154 0.0025 0.5
0.00025 0.03025 0.0025 0.5
0.00025 0.03025 -0.0025 0.5
0.00025 0.0305 0 0.5
0.019082 0.023918 -0.00208984 0.5
0.019082 0.023918 0.00208984 0.5
0.019082 0.023918 0.0025 0.5
0.019082 0.023918 -0.0025 0.5
0.0191756 0.024 0.0025 0.5
0.0191756 0.024 -0.0025 0.5
0.00025 0.03075 0.0025 0.5
0.00025 0.03075 -0.0025 0.5
0.0191518 0.0241518 0.00174094 0.5
0.0191518 0.0241518 -0.00174094 0.5
0.0191518 0.0241518 0.0025 0.5
0.0191518 0.0241518 -0.0025 0.5
0.0005 0.031 0.0025 0.5
0.0005 0.031 -0.0025 0.5
0.00025 0.03125 0.0025 0.5
0.00025 0.03125 -0.0025 0.5
0.0193118 0.0247062 -4.20988e-20 0.5
0.0192894 0.0247106 0.0025 0.5
0.0192894 0.0247106 -0.0025 0.5
0.00025 0.0315 0 0.5
0.0195536 0.025 0.0025 0.5
0.0195536 0.025 -0.0025 0.5
0.00025 0.03175 0.0025 0.5
0.00025 0.03175 -0.0025 0.5
0.0197901 0.0252099 0.00145048 0.5
0.0197901 0.0252099 -0.00145048 0.5
0.0005 0.032 0.0025 0.5
0.0005 0.032 -0.0025 0.5
0.0197901 0.0252099 0.0025 0.5
0.0197901 0.0252099 -0.0025 0.5
0.0198816 0.0255 -5.75758e-20 0.5
0.00025 0.03225 0.0025 0.5
0.00025 0.03225 -0.0025 0.5
0.00025 0.0325 0 0.5
0.0199615 0.0259615 -0.00230767 0.5
0.0199615 0.0259615 0.00230767 0.5
0.0199615 0.0259615 0.0025 0.5
0.0199615 0.0259615 -0.0025 0.5
0.00025 0.03275 0.0025 0.5
0.00025 0.03275 -0.0025 0.5
0.0199462 0.026 -0.0025 0.5
0.0199462 0.026 0.0025 0.5
0.0199755 0.0260245 -0.00237773 0.5
0.0199755 0.0260245 0.00237773 0.5
0.0199755 0.0260245 -0.0025 0.5
0.0199755 0.0260245 0.0025 0.5
0.02 0.0262115 -0.0025 0.5
0.02 0.0262115 0.0025 0.5
0.0005 0.033 0.0025 0.5
0.0005 0.033 -0.0025 0.5
0.0200486 0.0265 1.98166e-20 0.5
0.00025 0.03325 0.0025 0.5
0.00025 0.03325 -0.0025 0.5
0.00025 0.0335 0 0.5
0.0200945 0.0269055 -0.00202753 0.5
0.0200945 0.0269055 0.00202753 0.5
0.0200945 0.0269055 0.0025 0.5
0.0200945 0.0269055 -0.0025 0.5
0.0201917 0.027 0.0025 0.5
0.0201917 0.027 -0.0025 0.5
0.00025 0.03375 0.0025 0.5
0.00025 0.03375 -0.0025 0.5
0.0201592 0.0271592 -0.0017041 0.5
0.0201592 0.0271592 0.0017041 0.5
0.0201592 0.0271592 0.0025 0.5
0.0201592 0.0271592 -0.0025 0.5
0.0005 0.034 0.0025 0.5
0.0005 0.034 -0.0025 0.5
0.0202405 0.0276625 -1.8021e-19 0.5
0.00025 0.03425 0.0025 0.5
0.00025 0.03425 -0.0025 0.5
0.0202562 0.0277438 0.0025 0.5
0.0202562 0.0277438 -0.0025 0.5
0.00025 0.0345 0 0.5
0.0204315 0.028 0.0025 0.5
0.0204315 0.028 -0.0025 0.5
0.00025 0.03475 0.0025 0.5
0.00025 0.03475 -0.0025 0.5
0.0005 0.035 0.0025 0.5
0.0005 0.035 -0.0025 0.5
0.0206148 0.0284888 -2.23563e-20 0.5
0.0205967 0.0284033 0.0025 0.5
0.0205967 0.0284033 -0.0025 0.5
0.00025 0.03525 0.0025 0.5
0.00025 0.03525 -0.0025 0.5
0.0206653 0.0286653 0.0025 0.5
0.0206653 0.0286653 -0.0025 0.5
0.00025 0.0355 0 0.5
0.0207239 0.029 0.0025 0.5
0.0207239 0.029 -0.0025 0.5
0.00025 0.03575 0.0025 0.5
0.00025 0.03575 -0.0025 0.5
0.0208666 0.0291334 0.00183316 0.5
0.0208666 0.0291334 -0.00183316 0.5
0.0208666 0.0291334 -0.0025 0.5
0.0208666 0.0291334 0.0025 0.5
0.0005 0.036 0.0025 0.5
0.0005 0.036 -0.0025 0.5
0.0209315 0.0295 -3.44365e-19 0.5
0.00025 0.03625 0.0025 0.5
0.00025 0.03625 -0.0025 0.5
0.00025 0.0365 0 0.5
0.0209732 0.0299732 -0.00236593 0.5
0.0209732 0.0299732 0.00236593 0.5
0.0209732 0.0299732 0.0025 0.5
0.0209732 0.0299732 -0.0025 0.5
0.0209562 0.03 0.0025 0.5
0.0209562 0.03 -0.0025 0.5
0.0209794 0.0300206 0.00239689 0.5
0.0209794 0.0300206 -0.00239689 0.5
0.0209794 0.0300206 0.0025 0.5
0.0209794 0.0300206 -0.0025 0.5
0.00025 0.03675 0.0025 0.5
0.00025 0.03675 -0.0025 0.5
0.021 0.0303944 -0.0025 0.5
0.021 0.0303944 0.0025 0.5
0.0210178 0.0305 4.52086e-19 0.5
0.0005 0.037 0.0025 0.5
0.0005 0.037 -0.0025 0.5
0.00025 0.03725 -0.0025 0.5
0.00025 0.03725 0.0025 0.5
0.00025 0.0375 -6.77626e-19 0.5
0.0210331 0.0309669 -0.00233438 0.5
0.0210331 0.0309669 0.00233438 0.5
0.0210331 0.0309669 0.0025 0.5
0.0210331 0.0309669 -0.0025 0.5
0.0210661 0.031 0.0025 0.5
0.0210661 0.031 -0.0025 0.5
0.0210379 0.0310379 -0.0023103 0.5
0.0210379 0.0310379 0.0023103 0.5
0.0210379 0.0310379 -0.0025 0.5
0.0210379 0.0310379 0.0025 0.5
0.00025 0.03775 0.0025 0.5
0.00025 0.03775 -0.0025 0.5
0.0210541 0.0315 2.17308e-20 0.5
0.0005 0.038 0.0025 0.5
0.0005 0.038 -0.0025 0.5
0.0210652 0.0319348 -0.00217413 0.5
0.0210652 0.0319348 0.00217413 0.5
0.00025 0.03825 0.0025 0.5
0.00025 0.03825 -0.0025 0.5
0.0210652 0.0319348 0.0025 0.5
0.0210652 0.0319348 -0.0025 0.5
0.0211206 0.032 0.0025 0.5
0.0211206 0.032 -0.0025 0.5
0.0210723 0.0320723 -0.00213836 0.5
0.0210723 0.0320723 0.00213836 0.5
0.0210723 0.0320723 0.0025 0.5
0.0210723 0.0320723 -0.0025 0.5
0.00025 0.0385 8.67362e-19 0.5
0.0210838 0.0325 -3.18743e-20 0.5
0.00025 0.03875 0.0025 0.5
0.00025 0.03875 -0.0025 0.5
0.0005 0.039 0.0025 0.5
0.0005 0.039 -0.0025 0.5
0.0210839 0.0329161 -0.00208049 0.5
0.0210839 0.0329161 0.00208049 0.5
0.0210839 0.0329161 0.0025 0.5
0.0210839 0.0329161 -0.0025 0.5
0.0211438 0.033 0.0025 0.5
0.0211438 0.033 -0.0025 0.5
0.021084 0.033084 0.00207988 0.5
0.021084 0.033084 -0.00207988 0.5
0.021084 0.033084 0.0025 0.5
0.021084 0.033084 -0.0025 0.5
0.00025 0.03925 -0.0025 0.5
0.00025 0.03925 0.0025 0.5
0.00025 0.0395 0 0.5
0.0210842 0.0335 -3.07194e-20 0.5
0.00025 0.03975 -0.0025 0.5
0.00025 0.03975 0.0025 0.5
0.0210735 0.0339265 -0.00213236 0.5
0.0210735 0.0339265 0.00213236 0.5
0.0210735 0.0339265 -0.0025 0.5
0.0210735 0.0339265 0.0025 0.5
0.0005 0.04 0.0025 0.5
0.0005 0.04 -0.0025 0.5
0.0211227 0.034 0.0025 0.5
0.0211227 0.034 -0.0025 0.5
0.0210667 0.0340667 -0.00216652 0.5
0.0210667 0.0340667 0.00216652 0.5
0.0210667 0.0340667 0.0025 0.5
0.0210667 0.0340667 -0.0025 0.5
0.00025 0.04025 0.0025 0.5
0.00025 0.04025 -0.0025 0.5
0.0210564 0.0345 -6.98166e-19 0.5
0.00025 0.0405 6.77626e-19 0.5
0.00025 0.04075 0.0025 0.5
0.00025 0.04075 -0.0025 0.5
0.0210405 0.0349595 0.00229729 0.5
0.0210405 0.0349595 -0.00229729 0.5
0.0210405 0.0349595 0.0025 0.5
0.0210405 0.0349595 -0.0025 0.5
0.0210704 0.035 -0.0025 0.5
0.0210704 0.035 0.0025 0.5
0.0210355 0.0350355 -0.00232264 0.5
0.0210355 0.0350355 0.00232264 0.5
0.0210355 0.0350355 0.0025 0.5
0.0210355 0.0350355 -0.0025 0.5
0.0005 0.041 -0.0025 0.5
0.0005 0.041 0.0025 0.5
0.0210205 0.0355 7.43639e-19 0.5
0.00025 0.04125 0.0025 0.5
0.00025 0.04125 -0.0025 0.5
0.00025 0.0415 -6.77626e-19 0.5
0.0210067 0.0359933 0.0024664 0.5
0.0210067 0.0359933 -0.0024664 0.5
0.0210067 0.0359933 0.0025 0.5
0.0210067 0.0359933 -0.0025 0.5
0.0210126 0.036 0.0025 0.5
0.0210126 0.036 -0.0025 0.5
0.0210062 0.0360062 0.00246901 0.5
0.0210062 0.0360062 -0.00246901 0.5
0.0210062 0.0360062 0.0025 0.5
0.0210062 0.0360062 -0.0025 0.5
0.021 0.0360768 -0.0025 0.5
0.021 0.0360768 0.0025 0.5
0.00025 0.04175 0.0025 0.5
0.00025 0.04175 -0.0025 0.5
0.0005 0.042 0.0025 0.5
0.0005 0.042 -0.0025 0.5
0.0209928 0.0365 2.52129e-20 0.5
0.00025 0.04225 0.0025 0.5
0.00025 0.04225 -0.0025 0.5
0.00025 0.0425 0 0.5
0.0209328 0.0369328 -0.00216383 0.5
0.0209328 0.0369328 0.00216383 0.5
0.0209328 0.0369328 -0.0025 0.5
0.0209328 0.0369328 0.0025 0.5
0.0208491 0.037 0.0025 0.5
0.0208491 0.037 -0.0025 0.5
0.0208689 0.0371311 0.00184457 0.5
0.0208689 0.0371311 -0.00184457 0.5
0.0208689 0.0371311 0.0025 0.5
0.0208689 0.0371311 -0.0025 0.5
0.00025 0.04275 0.0025 0.5
0.00025 0.04275 -0.0025 0.5
0.0207981 0.0375 -8.18474e-20 0.5
0.0005 0.043 0.0025 0.5
0.0005 0.043 -0.0025 0.5
0.0207548 0.0377548 -0.00127424 0.5
0.0207548 0.0377548 0.00127424 0.5
0.0207548 0.0377548 0.0025 0.5
0.0207548 0.0377548 -0.0025 0.5
0.0205914 0.038 0.0025 0.5
0.0205914 0.038 -0.0025 0.5
0.00025 0.04325 0.0025 0.5
0.00025 0.04325 -0.0025 0.5
0.00025 0.0435 0 0.5
0.0204482 0.0384924 -4.00272e-20 0.5
0.0204545 0.0384545 -0.0025 0.5
0.0204545 0.0384545 0.0025 0.5
0.0204297 0.0385703 0.0025 0.5
0.0204297 0.0385703 -0.0025 0.5
0.00025 0.04375 0.0025 0.5
0.00025 0.04375 -0.0025 0.5
0.0203618 0.039 0.0025 0.5
0.0203618 0.039 -0.0025 0.5
0.0005 0.044 0.0025 0.5
0.0005 0.044 -0.0025 0.5
0.0202115 0.0392115 -0.00144267 0.5
0.0202115 0.0392115 0.00144267 0.5
0.0202115 0.0392115 0.0025 0.5
0.0202115 0.0392115 -0.0025 0.5
0.00025 0.04425 0.0025 0.5
0.00025 0.04425 -0.0025 0.5
0.0201695 0.0395 -9.28062e-19 0.5
0.00025 0.0445 -8.67362e-19 0.5
0.0201268 0.0398732 -0.00186618 0.5
0.0201268 0.0398732 0.00186618 0.5
0.0201268 0.0398732 0.0025 0.5
0.0201268 0.0398732 -0.0025 0.5
0.00025 0.04475 0.0025 0.5
0.00025 0.04475 -0.0025 0.5
0.0201677 0.04 0.0025 0.5
0.0201677 0.04 -0.0025 0.5
0.0200835 0.0400835 0.00208227 0.5
0.0200835 0.0400835 -0.00208227 0.5
0.0200835 0.0400835 0.0025 0.5
0.0200835 0.0400835 -0.0025 0.5
0.0005 0.045 0.0025 0.5
0.0005 0.045 -0.0025 0.5
0.0200447 0.0405 2.05218e-18 0.5
0.00025 0.04525 0.0025 0.5
0.00025 0.04525 -0.0025 0.5
0.00025 0.0455 1.49078e-18 0.5
0.0200092 0.0409908 -0.00245394 0.5
0.0200092 0.0409908 0.00245394 0.5
0.0200092 0.0409908 -0.0025 0.5
0.0200092 0.0409908 0.0025 0.5
0.0200161 0.041 -0.0025 0.5
0.0200161 0.041 0.0025 0.5
0.0200077 0.0410077 -0.00246139 0.5
0.0200077 0.0410077 0.00246139 0.5
0.0200077 0.0410077 -0.0025 0.5
0.0200077 0.0410077 0.0025 0.5
0.02 0.0410589 -0.0025 0.5
0.02 0.0410589 0.0025 0.5
0.00025 0.04575 0.0025 0.5
0.00025 0.04575 -0.0025 0.5
0.0199733 0.0415 -1.17762e-18 0.5
0.0005 0.046 -0.0025 0.5
0.0005 0.046 0.0025 0.5
0.00025 0.04625 0.0025 0.5
0.00025 0.04625 -0.0025 0.5
0.019891 0.041891 -0.00195488 0.5
0.019891 0.041891 0.00195488 0.5
0.019891 0.041891 -0.0025 0.5
0.019891 0.041891 0.0025 0.5
0.0197495 0.042 0.0025 0.5
0.0197495 0.042 -0.0025 0.5
0.00025 0.0465 -8.67362e-19 0.5
0.019642 0.042358 0.0025 0.5
0.019642 0.042358 -0.0025 0.5
0.019591 0.0425034 -1.56154e-21 0.5
0.00025 0.04675 0.0025 0.5
0.00025 0.04675 -0.0025 0.5
0.0195725 0.0425725 0.0025 0.5
0.0195725 0.0425725 -0.0025 0.5
0.0005 0.047 0.0025 0.5
0.0005 0.047 -0.0025 0.5
0.0194142 0.043 0.0025 0.5
0.0194142 0.043 -0.0025 0.5
0.00025 0.04725 0.0025 0.5
0.00025 0.04725 -0.0025 0.5
0.0192417 0.0432417 0.00129148 0.5
0.0192417 0.0432417 -0.00129148 0.5
0.0192417 0.0432417 0.0025 0.5
0.0192417 0.0432417 -0.0025 0.5
0.00025 0.0475 0 0.5
0.0191932 0.0435 3.20459e-20 0.5
0.00025 0.04775 0.0025 0.5
0.00025 0.04775 -0.0025 0.5
0.0191389 0.0438611 -0.00180541 0.5
0.0191389 0.0438611 0.00180541 0.5
0.0191389 0.0438611 0.0025 0.5
0.0191389 0.0438611 -0.0025 0.5
0.0191703 0.044 0.0025 0.5
0.0191703 0.044 -0.0025 0.5
0.0005 0.048 0.0025 0.5
0.0005 0.048 -0.0025 0.5
0.0190814 0.0440814 -0.0020932 0.5
0.0190814 0.0440814 0.0020932 0.5
0.0190814 0.0440814 0.0025 0.5
0.0190814 0.0440814 -0.0025 0.5
0.00025 0.04825 0.0025 0.5
0.00025 0.04825 -0.0025 0.5
0.019033 0.0445 -4.3711e-21 0.5
0.00025 0.0485 0 0.5
0.00025 0.04875 0.0025 0.5
0.00025 0.04875 -0.0025 0.5
0.0190027 0.0449973 -0.00248648 0.5
0.0190027 0.0449973 0.00248648 0.5
0.0190027 0.0449973 0.0025 0.5
0.0190027 0.0449973 -0.0025 0.5
0.0190049 0.045 0.0025 0.5
0.0190049 0.045 -0.0025 0.5
0.0190024 0.0450024 -0.00248815 0.5
0.0190024 0.0450024 0.00248815 0.5
0.0190024 0.0450024 0.0025 0.5
0.0190024 0.0450024 -0.0025 0.5
0.019 0.045034 -0.0025 0.5
0.019 0.045034 0.0025 0.5
0.0005 0.049 0.0025 0.5
0.0005 0.049 -0.0025 0.5
0.0189724 0.0455 9.16331e-19 0.5
0.00025 0.04925 0.0025 0.5
0.00025 0.04925 -0.0025 0.5
0.00025 0.0495 0 0.5
0.0189344 0.0459344 -0.00217185 0.5
0.0189344 0.0459344 0.00217185 0.5
0.0189344 0.0459344 0.0025 0.5
0.0189344 0.0459344 -0.0025 0.5
0.0188647 0.046 0.0025 0.5
0.0188647 0.046 -0.0025 0.5
0.00025 0.04975 0.0025 0.5
0.00025 0.04975 -0.0025 0.5
0.0189032 0.0460968 0.00201613 0.5
0.0189032 0.0460968 -0.00201613 0.5
0.0189032 0.0460968 0.0025 0.5
0.0189032 0.0460968 -0.0025 0.5
0.0005 0.05 0.0025 0.5
0.0005 0.05 -0.0025 0.5
0.0188605 0.0465 -3.24291e-19 0.5
0.00025 0.05025 -0.0025 0.5
0.00025 0.05025 0.0025 0.5
0.0188145 0.0468145 -0.00157245 0.5
0.0188145 0.0468145 0.00157245 0.5
0.00025 0.0505 1.49078e-18 0.5
0.0188145 0.0468145 0.0025 0.5
0.0188145 0.0468145 -0.0025 0.5
0.0186675 0.047 0.0025 0.5
0.0186675 0.047 -0.0025 0.5
0.00025 0.05075 -0.0025 0.5
0.00025 0.05075 0.0025 0.5
0.0186213 0.0473787 0.0025 0.5
0.0186213 0.0473787 -0.0025 0.5
0.0185915 0.0475228 1.71219e-20 0.5
0.0005 0.051 -0.0025 0.5
0.0005 0.051 0.0025 0.5
0.0185838 0.0475838 0.0025 0.5
0.0185838 0.0475838 -0.0025 0.5
0.00025 0.05125 0.0025 0.5
0.00025 0.05125 -0.0025 0.5
0.0184711 0.048 0.0025 0.5
0.0184711 0.048 -0.0025 0.5
0.00025 0.0515 -1.49078e-18 0.5
0.0183398 0.0483398 0.0025 0.5
0.0183398 0.0483398 -0.0025 0.5
0.00025 0.05175 0.0025 0.5
0.00025 0.05175 -0.0025 0.5
0.0183189 0.0485137 -9.81978e-20 0.5
0.0005 0.052 0.0025 0.5
0.0005 0.052 -0.0025 0.5
0.0182987 0.0487013 0.0025 0.5
0.0182987 0.0487013 -0.0025 0.5
0.00025 0.05225 0.0025 0.5
0.00025 0.05225 -0.0025 0.5
0.0183296 0.049 -0.0025 0.5
0.0183296 0.049 0.0025 0.5
0.0182088 0.0492088 -0.00145607 0.5
0.0182088 0.0492088 0.00145607 0.5
0.00025 0.0525 0 0.5
0.0182088 0.0492088 0.0025 0.5
0.0182088 0.0492088 -0.0025 0.5
0.0181851 0.0495 9.70042e-19 0.5
0.00025 0.05275 0.0025 0.5
0.00025 0.05275 -0.0025 0.5
0.0005 0.053 0.0025 0.5
0.0005 0.053 -0.0025 0.5
0.0181677 0.0498323 -0.00166142 0.5
0.0181677 0.0498323 0.00166142 0.5
0.0181677 0.0498323 0.0025 0.5
0.0181677 0.0498323 -0.0025 0.5
0.018232 0.05 0.0025 0.5
0.018232 0.05 -0.0025 0.5
0.00025 0.05325 0.0025 0.5
0.00025 0.05325 -0.0025 0.5
0.0181374 0.0501374 -0.001813 0.5
0.0181374 0.0501374 0.001813 0.5
0.0181374 0.0501374 0.0025 0.5
0.0181374 0.0501374 -0.0025 0.5
0.00025 0.0535 0 0.5
0.0181202 0.0505 1.30444e-18 0.5
0.00025 0.05375 0.0025 0.5
0.00025 0.05375 -0.0025 0.5