# f_l  POINT_DATA 1576
#  x  y  z  f_l
0.0359901 0.00166661 9.30784e-20 0.5
0.0359945 0.00154401 -0.0025 0.5
0.0359945 0.00154401 0.0025 0.5
0.0359897 0.00179081 0.0025 0.5
0.0359897 0.00179081 -0.0025 0.5
0.0361352 0.000597846 4.08935e-20 0.5
0.0360435 0.00277338 1.88154e-21 0.5
0.0360854 0.00111 0.0025 0.5
0.0360854 0.00111 -0.0025 0.5
0.0360597 0.00222 0.0025 0.5
0.0360597 0.00222 -0.0025 0.5
0.0360411 0.00270059 -0.0025 0.5
0.0360411 0.00270059 0.0025 0.5
0.0361388 0.000578138 0.0025 0.5
0.0361388 0.000578138 -0.0025 0.5
0.036046 0.00284455 -0.0025 0.5
0.036046 0.00284455 0.0025 0.5
0.0361294 0.00387149 3.57438e-22 0.5
0.0361 0.00333 0.0025 0.5
0.0361 0.00333 -0.0025 0.5
0.0361298 0.00387083 -0.0025 0.5
0.0361298 0.00387083 0.0025 0.5
0.0361312 0.00390059 -0.0025 0.5
0.0361312 0.00390059 0.0025 0.5
0.0361533 0.00444 0.0025 0.5
0.0361533 0.00444 -0.0025 0.5
0.0362371 0.00499935 1.06902e-19 0.5
0.0362309 0.00487986 0.0025 0.5
0.0362309 0.00487986 -0.0025 0.5
0.036244 0.0051232 0.0025 0.5
0.036244 0.0051232 -0.0025 0.5
0.0362198 0.00555 0.0025 0.5
0.0362198 0.00555 -0.0025 0.5
0.0366712 0.000726812 -0.0025 0.5
0.0366712 0.000726812 0.0025 0.5
0.0363411 0.00611345 3.52632e-19 0.5
0.0363289 0.00589199 0.0025 0.5
0.0363289 0.00589199 -0.0025 0.5
0.0363542 0.00634336 0.0025 0.5
0.0363542 0.00634336 -0.0025 0.5
0.0362977 0.00666 -0.0025 0.5
0.0362977 0.00666 0.0025 0.5
0.0369491 0.0002775 0.0025 0.5
0.0369491 0.0002775 -0.0025 0.5
0.0364184 0.00691261 0.00136211 0.5
0.0364184 0.00691261 -0.00136211 0.5
0.0364345 0.007215 1.49749e-19 0.5
0.0364184 0.00691261 0.0025 0.5
0.0364184 0.00691261 -0.0025 0.5
0.0372269 0.0002775 1.82154e-19 0.5
0.0364536 0.00755264 -0.00152092 0.5
0.0364536 0.00755264 0.00152092 0.5
0.0363834 0.00777 0.0025 0.5
0.0363834 0.00777 -0.0025 0.5
0.0364536 0.00755264 0.0025 0.5
0.0364536 0.00755264 -0.0025 0.5
0.0364958 0.00794521 0.00171078 0.5
0.0364958 0.00794521 -0.00171078 0.5
0.0364958 0.00794521 0.0025 0.5
0.0364958 0.00794521 -0.0025 0.5
0.0365152 0.008325 5.5096e-20 0.5
0.0375047 0.0002775 0.0025 0.5
0.0375047 0.0002775 -0.0025 0.5
0.0365368 0.00874574 -0.00189522 0.5
0.0365368 0.00874574 0.00189522 0.5
0.0364721 0.00888 0.0025 0.5
0.0364721 0.00888 -0.0025 0.5
0.0365368 0.00874574 0.0025 0.5
0.0365368 0.00874574 -0.0025 0.5
0.0365608 0.00899038 0.00200281 0.5
0.0365608 0.00899038 -0.00200281 0.5
0.0365608 0.00899038 0.0025 0.5
0.0365608 0.00899038 -0.0025 0.5
0.0365815 0.009435 2.40388e-22 0.5
0.0377825 0.000555 -0.0025 0.5
0.0377825 0.000555 0.0025 0.5
0.0365567 0.00999 0.0025 0.5
0.0365567 0.00999 -0.0025 0.5
0.0366018 0.00992063 -0.0021875 0.5
0.0366018 0.00992063 0.0021875 0.5
0.0366018 0.00992063 0.0025 0.5
0.0366018 0.00992063 -0.0025 0.5
0.0366121 0.0100491 0.00223394 0.5
0.0366121 0.0100491 -0.00223394 0.5
0.0366121 0.0100491 0.0025 0.5
0.0366121 0.0100491 -0.0025 0.5
0.0366313 0.010545 -2.66284e-20 0.5
0.0380603 0.0002775 0.0025 0.5
0.0380603 0.0002775 -0.0025 0.5
0.0383381 0.0002775 0 0.5
0.0366353 0.0111 0.0025 0.5
0.0366353 0.0111 -0.0025 0.5
0.0366514 0.0110802 -0.00241068 0.5
0.0366514 0.0110802 0.00241068 0.5
0.0366514 0.0110802 0.0025 0.5
0.0366514 0.0110802 -0.0025 0.5
0.0366535 0.0111178 0.00242001 0.5
0.0366535 0.0111178 -0.00242001 0.5
0.0366535 0.0111178 0.0025 0.5
0.0366535 0.0111178 -0.0025 0.5
0.0366713 0.0113239 -0.0025 0.5
0.0366713 0.0113239 0.0025 0.5
0.0366729 0.011655 -5.70811e-20 0.5
0.0386159 0.0002775 0.0025 0.5
0.0386159 0.0002775 -0.0025 0.5
0.0367359 0.0121454 -0.00220923 0.5
0.0367359 0.0121454 0.00220923 0.5
0.0367359 0.0121454 0.0025 0.5
0.0367359 0.0121454 -0.0025 0.5
0.0367841 0.0123227 -0.00199226 0.5
0.0367841 0.0123227 0.00199226 0.5
0.0368134 0.01221 0.0025 0.5
0.0368134 0.01221 -0.0025 0.5
0.0367841 0.0123227 0.0025 0.5
0.0367841 0.0123227 -0.0025 0.5
0.0388938 0.000555 -0.0025 0.5
0.0388938 0.000555 0.0025 0.5
0.0368574 0.012765 -2.75113e-19 0.5
0.0369024 0.0130891 -0.00145978 0.5
0.0369024 0.0130891 0.00145978 0.5
0.0369024 0.0130891 0.0025 0.5
0.0369024 0.0130891 -0.0025 0.5
0.0391716 0.0002775 0.0025 0.5
0.0391716 0.0002775 -0.0025 0.5
0.0394494 0.0002775 3.228e-22 0.5
0.0370657 0.01332 0.0025 0.5
0.0370657 0.01332 -0.0025 0.5
0.037148 0.0138915 6.93683e-19 0.5
0.0371225 0.0137708 -0.0025 0.5
0.0371225 0.0137708 0.0025 0.5
0.0371554 0.0139464 0.0025 0.5
0.0371554 0.0139464 -0.0025 0.5
0.0397272 0.0002775 0.0025 0.5
0.0397272 0.0002775 -0.0025 0.5
0.0372886 0.01443 -0.0025 0.5
0.0372886 0.01443 0.0025 0.5
0.040005 0.000555 -0.0025 0.5
0.040005 0.000555 0.0025 0.5
0.0374639 0.0148346 -4.50629e-19 0.5
0.0374527 0.0147594 -0.0025 0.5
0.0374527 0.0147594 0.0025 0.5
0.0402828 0.0002775 0.0025 0.5
0.0402828 0.0002775 -0.0025 0.5
0.0375266 0.0152844 -0.00134849 0.5
0.0375266 0.0152844 0.00134849 0.5
0.0405606 0.0002775 0 0.5
0.0375266 0.0152844 -0.0025 0.5
0.0375266 0.0152844 0.0025 0.5
0.0374937 0.01554 0.0025 0.5
0.0374937 0.01554 -0.0025 0.5
0.0376249 0.0156975 0.00179069 0.5
0.0376249 0.0156975 -0.00179069 0.5
0.0376249 0.0156975 0.0025 0.5
0.0376249 0.0156975 -0.0025 0.5
0.0408384 0.0002775 0.0025 0.5
0.0408384 0.0002775 -0.0025 0.5
0.0376671 0.016095 0 0.5
0.0411163 0.000555 -0.0025 0.5
0.0411163 0.000555 0.0025 0.5
0.0377052 0.0165728 -0.00215212 0.5
0.0377052 0.0165728 0.00215212 0.5
0.0376646 0.01665 0.0025 0.5
0.0376646 0.01665 -0.0025 0.5
0.0377052 0.0165728 0.0025 0.5
0.0377052 0.0165728 -0.0025 0.5
0.0377251 0.0167074 0.00224151 0.5
0.0377251 0.0167074 -0.00224151 0.5
0.0377251 0.0167074 0.0025 0.5
0.0377251 0.0167074 -0.0025 0.5
0.0413941 0.0002775 0.0025 0.5
0.0413941 0.0002775 -0.0025 0.5
0.0377593 0.017205 -1.2365e-20 0.5
0.0377825 0.0170771 -0.0025 0.5
0.0377825 0.0170771 0.0025 0.5
0.0416719 0.0002775 0 0.5
0.0378631 0.0176795 -0.00213756 0.5
0.0378631 0.0176795 0.00213756 0.5
0.0378631 0.0176795 0.0025 0.5
0.0378631 0.0176795 -0.0025 0.5
0.0379749 0.01776 0.0025 0.5
0.0379749 0.01776 -0.0025 0.5
0.0419497 0.0002775 0.0025 0.5
0.0419497 0.0002775 -0.0025 0.5
0.0380131 0.0179904 -0.00146236 0.5
0.0380131 0.0179904 0.00146236 0.5
0.0380131 0.0179904 0.0025 0.5
0.0380131 0.0179904 -0.0025 0.5
0.0422275 0.000555 -0.0025 0.5
0.0422275 0.000555 0.0025 0.5
0.0381893 0.018495 -1.72768e-20 0.5
0.0381686 0.0184843 0.0025 0.5
0.0381686 0.0184843 -0.0025 0.5
0.0425053 0.0002775 0.0025 0.5
0.0425053 0.0002775 -0.0025 0.5
0.0427831 0.0002775 -6.27343e-20 0.5
0.0383879 0.01887 0.0025 0.5
0.0383879 0.01887 -0.0025 0.5
0.0430609 0.0002775 0.0025 0.5
0.0430609 0.0002775 -0.0025 0.5
0.0386252 0.0192476 -2.50764e-20 0.5
0.0386046 0.0191589 0.0025 0.5
0.0386046 0.0191589 -0.0025 0.5
0.0433388 0.000555 -0.0025 0.5
0.0433388 0.000555 0.0025 0.5
0.0387295 0.0198159 -0.00176091 0.5
0.0387295 0.0198159 0.00176091 0.5
0.0387295 0.0198159 0.0025 0.5
0.0387295 0.0198159 -0.0025 0.5
0.0386982 0.01998 0.0025 0.5
0.0386982 0.01998 -0.0025 0.5
0.0436166 0.0002775 0.0025 0.5
0.0436166 0.0002775 -0.0025 0.5
0.0388009 0.0200727 0.00208233 0.5
0.0388009 0.0200727 -0.00208233 0.5
0.0388009 0.0200727 0.0025 0.5
0.0388009 0.0200727 -0.0025 0.5
0.0438944 0.0002775 -5.5916e-20 0.5
0.0388574 0.020535 -2.19543e-20 0.5
0.0388938 0.0205312 -0.0025 0.5
0.0388938 0.0205312 0.0025 0.5
0.0441722 0.0002775 0.0025 0.5
0.0441722 0.0002775 -0.0025 0.5
0.0389779 0.021006 -0.00212156 0.5
0.0389779 0.021006 0.00212156 0.5
0.0389779 0.021006 -0.0025 0.5
0.0389779 0.021006 0.0025 0.5
0.0390983 0.02109 0.0025 0.5
0.0390983 0.02109 -0.0025 0.5
0.04445 0.000555 0.0025 0.5
0.04445 0.000555 -0.0025 0.5
0.0391836 0.0213795 0.0025 0.5
0.0391836 0.0213795 -0.0025 0.5
0.0447278 0.0002775 0.0025 0.5
0.0447278 0.0002775 -0.0025 0.5
0.0392904 0.0216356 2.5945e-19 0.5
0.0450056 0.0002775 0 0.5
0.0393333 0.021761 0.0025 0.5
0.0393333 0.021761 -0.0025 0.5
0.0452834 0.0002775 0.0025 0.5
0.0452834 0.0002775 -0.0025 0.5
0.0395821 0.0222 0.0025 0.5
0.0395821 0.0222 -0.0025 0.5
0.0455612 0.000555 -0.0025 0.5
0.0455612 0.000555 0.0025 0.5
0.0397981 0.0224067 0.00156894 0.5
0.0397981 0.0224067 -0.00156894 0.5
0.0397981 0.0224067 0.0025 0.5
0.0397981 0.0224067 -0.0025 0.5
0.0458391 0.0002775 0.0025 0.5
0.0458391 0.0002775 -0.0025 0.5
0.0398836 0.022755 -8.52371e-20 0.5
0.0461169 0.0002775 0 0.5
0.0399871 0.0232921 -0.00241957 0.5
0.0399871 0.0232921 0.00241957 0.5
0.0399871 0.0232921 0.0025 0.5
0.0399871 0.0232921 -0.0025 0.5
0.0399795 0.02331 0.0025 0.5
0.0399795 0.02331 -0.0025 0.5
0.0399934 0.0233216 -0.00244765 0.5
0.0399934 0.0233216 0.00244765 0.5
0.0399934 0.0233216 0.0025 0.5
0.0399934 0.0233216 -0.0025 0.5
0.040005 0.0233627 0.0025 0.5
0.040005 0.0233627 -0.0025 0.5
0.0463947 0.0002775 0.0025 0.5
0.0463947 0.0002775 -0.0025 0.5
0.0400933 0.023865 -5.09775e-19 0.5
0.0466725 0.000555 -0.0025 0.5
0.0466725 0.000555 0.0025 0.5
0.0402113 0.0242139 0.00157159 0.5
0.0402113 0.0242139 -0.00157159 0.5
0.0402113 0.0242139 0.0025 0.5
0.0402113 0.0242139 -0.0025 0.5
0.0469503 0.0002775 0.0025 0.5
0.0469503 0.0002775 -0.0025 0.5
0.0472281 0.0002775 -1.94461e-21 0.5
0.0404803 0.02442 -0.0025 0.5
0.0404803 0.02442 0.0025 0.5
0.0475059 0.0002775 0.0025 0.5
0.0475059 0.0002775 -0.0025 0.5
0.0407771 0.0247453 5.11459e-19 0.5
0.040801 0.0247349 0.0025 0.5
0.040801 0.0247349 -0.0025 0.5
0.0477837 0.000555 -0.0025 0.5
0.0477837 0.000555 0.0025 0.5
0.0480616 0.0002775 0.0025 0.5
0.0480616 0.0002775 -0.0025 0.5
0.0409747 0.0253886 0.00186303 0.5
0.0409747 0.0253886 -0.00186303 0.5
0.0409747 0.0253886 0.0025 0.5
0.0409747 0.0253886 -0.0025 0.5
0.0409506 0.02553 0.0025 0.5
0.0409506 0.02553 -0.0025 0.5
0.0483394 0.0002775 0 0.5
0.041042 0.0256041 0.00216614 0.5
0.041042 0.0256041 -0.00216614 0.5
0.041042 0.0256041 0.0025 0.5
0.041042 0.0256041 -0.0025 0.5
0.0411163 0.0259045 -0.0025 0.5
0.0411163 0.0259045 0.0025 0.5
0.0486172 0.0002775 0.0025 0.5
0.0486172 0.0002775 -0.0025 0.5
0.0411071 0.026085 9.16107e-20 0.5
0.048895 0.000555 -0.0025 0.5
0.048895 0.000555 0.0025 0.5
0.0412421 0.0265143 -0.00193369 0.5
0.0412421 0.0265143 0.00193369 0.5
0.0412421 0.0265143 0.0025 0.5
0.0412421 0.0265143 -0.0025 0.5
0.0491728 0.0002775 0.0025 0.5
0.0491728 0.0002775 -0.0025 0.5
0.0414444 0.02664 0.0025 0.5
0.0414444 0.02664 -0.0025 0.5
0.0494506 0.0002775 0 0.5
0.0497284 0.0002775 0.0025 0.5
0.0497284 0.0002775 -0.0025 0.5
0.0417974 0.0270696 0.0025 0.5
0.0417974 0.0270696 -0.0025 0.5
0.0418433 0.0272032 4.08332e-21 0.5
0.0500063 0.000555 -0.0025 0.5
0.0500063 0.000555 0.0025 0.5
0.041938 0.0274608 0.0025 0.5
0.041938 0.0274608 -0.0025 0.5
0.0502841 0.0002775 0.0025 0.5
0.0502841 0.0002775 -0.0025 0.5
0.0419808 0.02775 0.0025 0.5
0.0419808 0.02775 -0.0025 0.5
0.0421184 0.027859 0.00200889 0.5
0.0421184 0.027859 -0.00200889 0.5
0.0421184 0.027859 0.0025 0.5
0.0421184 0.027859 -0.0025 0.5
0.0505619 0.0002775 1.91847e-21 0.5
0.0422007 0.028305 -6.1446e-19 0.5
0.0508397 0.0002775 0.0025 0.5
0.0508397 0.0002775 -0.0025 0.5
0.0422275 0.0283309 -0.0025 0.5
0.0422275 0.0283309 0.0025 0.5
0.0511175 0.000555 -0.0025 0.5
0.0511175 0.000555 0.0025 0.5
0.0423209 0.0287667 -0.00207954 0.5
0.0423209 0.0287667 0.00207954 0.5
0.0423209 0.0287667 0.0025 0.5
0.0423209 0.0287667 -0.0025 0.5
0.0424575 0.02886 0.0025 0.5
0.0424575 0.02886 -0.0025 0.5
0.0513953 0.0002775 0.0025 0.5
0.0513953 0.0002775 -0.0025 0.5
0.0516731 0.0002775 0 0.5
0.0426002 0.0292322 0.0025 0.5
0.0426002 0.0292322 -0.0025 0.5
0.0426793 0.0294024 9.76434e-19 0.5
0.0427125 0.0294855 0.0025 0.5
0.0427125 0.0294855 -0.0025 0.5
0.0519509 0.0002775 0.0025 0.5
0.0519509 0.0002775 -0.0025 0.5
0.0522288 0.000555 -0.0025 0.5
0.0522288 0.000555 0.0025 0.5
0.0429855 0.02997 0.0025 0.5
0.0429855 0.02997 -0.0025 0.5
0.0525066 0.0002775 0.0025 0.5
0.0525066 0.0002775 -0.0025 0.5
0.0431845 0.030124 0.00180615 0.5
0.0431845 0.030124 -0.00180615 0.5
0.0431845 0.030124 0.0025 0.5
0.0431845 0.030124 -0.0025 0.5
0.0527844 0.0002775 0 0.5
0.0432863 0.030525 -1.35973e-18 0.5
0.0530622 0.0002775 0.0025 0.5
0.0530622 0.0002775 -0.0025 0.5
0.0433388 0.0308137 -0.0025 0.5
0.0433388 0.0308137 0.0025 0.5
0.0433894 0.0310294 0.00227196 0.5
0.0433894 0.0310294 -0.00227196 0.5
0.05334 0.000555 -0.0025 0.5
0.05334 0.000555 0.0025 0.5
0.0433894 0.0310294 0.0025 0.5
0.0433894 0.0310294 -0.0025 0.5
0.0434553 0.03108 0.0025 0.5
0.0434553 0.03108 -0.0025 0.5
0.0434447 0.0311858 -0.00202337 0.5
0.0434447 0.0311858 0.00202337 0.5
0.0434447 0.0311858 0.0025 0.5
0.0434447 0.0311858 -0.0025 0.5
0.0536178 0.0002775 -0.0025 0.5
0.0536178 0.0002775 0.0025 0.5
0.0538956 0.0002775 0 0.5
0.0436815 0.0318605 6.83561e-19 0.5
0.0436581 0.031871 0.0025 0.5
0.0436581 0.031871 -0.0025 0.5
0.0541734 0.0002775 0.0025 0.5
0.0541734 0.0002775 -0.0025 0.5
0.0544513 0.000555 -0.0025 0.5
0.0544513 0.000555 0.0025 0.5
0.0439787 0.03219 0.0025 0.5
0.0439787 0.03219 -0.0025 0.5
0.0547291 0.0002775 0.0025 0.5
0.0547291 0.0002775 -0.0025 0.5
0.0442458 0.032394 -0.00158116 0.5
0.0442458 0.032394 0.00158116 0.5
0.0442458 0.032394 0.0025 0.5
0.0442458 0.032394 -0.0025 0.5
0.0550069 0.0002775 -5.58287e-21 0.5
0.0443632 0.032745 7.825e-20 0.5
0.0552847 0.0002775 0.0025 0.5
0.0552847 0.0002775 -0.0025 0.5
0.044433 0.033283 0.00242347 0.5
0.044433 0.033283 -0.00242347 0.5
0.044433 0.033283 0.0025 0.5
0.044433 0.033283 -0.0025 0.5
0.0444232 0.0333 0.0025 0.5
0.0444232 0.0333 -0.0025 0.5
0.0444375 0.0333125 -0.00244369 0.5
0.0444375 0.0333125 0.00244369 0.5
0.0444375 0.0333125 0.0025 0.5
0.0444375 0.0333125 -0.0025 0.5
0.0555625 0.000555 -0.0025 0.5
0.0555625 0.000555 0.0025 0.5
0.04445 0.0333707 0.0025 0.5
0.04445 0.0333707 -0.0025 0.5
0.0558403 0.0002775 0.0025 0.5
0.0558403 0.0002775 -0.0025 0.5
0.0445043 0.033855 3.84434e-20 0.5
0.0561181 0.0002775 0 0.5
0.0446121 0.0342481 -0.0017706 0.5
0.0446121 0.0342481 0.0017706 0.5
0.0446121 0.0342481 0.0025 0.5
0.0446121 0.0342481 -0.0025 0.5
0.0563959 0.0002775 0.0025 0.5
0.0563959 0.0002775 -0.0025 0.5
0.0448263 0.03441 -0.0025 0.5
0.0448263 0.03441 0.0025 0.5
0.0566738 0.000555 -0.0025 0.5
0.0566738 0.000555 0.0025 0.5
0.0569516 0.0002775 0.0025 0.5
0.0569516 0.0002775 -0.0025 0.5
0.0451226 0.0348482 0.0025 0.5
0.0451226 0.0348482 -0.0025 0.5
0.0451615 0.0349698 1.12441e-21 0.5
0.0572294 0.0002775 0 0.5
0.0452482 0.0352073 0.0025 0.5
0.0452482 0.0352073 -0.0025 0.5
0.0575072 0.0002775 0.0025 0.5
0.0575072 0.0002775 -0.0025 0.5
0.0453084 0.03552 0.0025 0.5
0.0453084 0.03552 -0.0025 0.5
0.0454505 0.0356306 0.00200159 0.5
0.0454505 0.0356306 -0.00200159 0.5
0.0454505 0.0356306 0.0025 0.5
0.0454505 0.0356306 -0.0025 0.5
0.057785 0.000555 -0.0025 0.5
0.057785 0.000555 0.0025 0.5
0.0455362 0.036075 -3.09317e-20 0.5
0.0580628 0.0002775 0.0025 0.5
0.0580628 0.0002775 -0.0025 0.5
0.0583406 0.0002775 0 0.5
0.0455484 0.0366172 -0.00244229 0.5
0.0455484 0.0366172 0.00244229 0.5
0.0455373 0.03663 0.0025 0.5
0.0455373 0.03663 -0.0025 0.5
0.0455484 0.0366172 0.0025 0.5
0.0455484 0.0366172 -0.0025 0.5
0.0455495 0.0366417 0.00244717 0.5
0.0455495 0.0366417 -0.00244717 0.5
0.0455495 0.0366417 0.0025 0.5
0.0455495 0.0366417 -0.0025 0.5
0.0455612 0.0367082 -0.0025 0.5
0.0455612 0.0367082 0.0025 0.5
0.0586184 0.0002775 0.0025 0.5
0.0586184 0.0002775 -0.0025 0.5
0.0455612 0.037185 -1.4495e-20 0.5
0.0588963 0.000555 -0.0025 0.5
0.0588963 0.000555 0.0025 0.5
0.0456845 0.0376169 -0.00194566 0.5
0.0456845 0.0376169 0.00194566 0.5
0.0591741 0.0002775 0.0025 0.5
0.0591741 0.0002775 -0.0025 0.5
0.0456845 0.0376169 0.0025 0.5
0.0456845 0.0376169 -0.0025 0.5
0.0594519 0.0002775 -7.45167e-21 0.5
0.0458779 0.03774 0.0025 0.5
0.0458779 0.03774 -0.0025 0.5
0.0597297 0.0002775 0.0025 0.5
0.0597297 0.0002775 -0.0025 0.5
0.0462077 0.0382043 0.0025 0.5
0.0462077 0.0382043 -0.0025 0.5
0.0462427 0.0383028 -3.5664e-22 0.5
0.0600075 0.000555 -0.0025 0.5
0.0600075 0.000555 0.0025 0.5
0.0463164 0.0384943 0.0025 0.5
0.0463164 0.0384943 -0.0025 0.5
0.0602853 0.0002775 0.0025 0.5
0.0602853 0.0002775 -0.0025 0.5
0.0605631 0.0002775 -9.93434e-23 0.5
0.0463956 0.03885 0.0025 0.5
0.0463956 0.03885 -0.0025 0.5
0.0465481 0.0389743 0.00194028 0.5
0.0465481 0.0389743 -0.00194028 0.5
0.0465481 0.0389743 0.0025 0.5
0.0465481 0.0389743 -0.0025 0.5
0.0608409 0.0002775 0.0025 0.5
0.0608409 0.0002775 -0.0025 0.5
0.0466319 0.039405 8.37246e-20 0.5
0.0611187 0.000555 -0.0025 0.5
0.0611187 0.000555 0.0025 0.5
0.0613966 0.0002775 -0.0025 0.5
0.0613966 0.0002775 0.0025 0.5
0.0466514 0.0399389 -0.00240513 0.5
0.0466514 0.0399389 0.00240513 0.5
0.0466514 0.0399389 0.0025 0.5
0.0466514 0.0399389 -0.0025 0.5
0.0466346 0.03996 0.0025 0.5
0.0466346 0.03996 -0.0025 0.5
0.0466542 0.0399783 0.00241763 0.5
0.0466542 0.0399783 -0.00241763 0.5
0.0466542 0.0399783 0.0025 0.5
0.0466542 0.0399783 -0.0025 0.5
0.0466725 0.0402014 -0.0025 0.5
0.0466725 0.0402014 0.0025 0.5
0.0616744 0.0002775 0 0.5
0.0466725 0.040515 0 0.5
0.0619522 0.0002775 -0.0025 0.5
0.0619522 0.0002775 0.0025 0.5
0.0467332 0.0410094 0.00222698 0.5
0.0467332 0.0410094 -0.00222698 0.5
0.0467332 0.0410094 0.0025 0.5
0.0467332 0.0410094 -0.0025 0.5
0.06223 0.000555 -0.0025 0.5
0.06223 0.000555 0.0025 0.5
0.0468087 0.04107 0.0025 0.5
0.0468087 0.04107 -0.0025 0.5
0.0467802 0.0411776 0.00201522 0.5
0.0467802 0.0411776 -0.00201522 0.5
0.0467802 0.0411776 0.0025 0.5
0.0467802 0.0411776 -0.0025 0.5
0.0625078 0.0002775 0.0025 0.5
0.0625078 0.0002775 -0.0025 0.5
0.046853 0.041625 -1.40261e-18 0.5
0.0627856 0.0002775 3.76374e-21 0.5
0.0469387 0.0419141 -0.00130207 0.5
0.0469387 0.0419141 0.00130207 0.5
0.0469387 0.0419141 0.0025 0.5
0.0469387 0.0419141 -0.0025 0.5
0.0630634 0.0002775 -0.0025 0.5
0.0630634 0.0002775 0.0025 0.5
0.0471935 0.04218 0.0025 0.5
0.0471935 0.04218 -0.0025 0.5
0.0633413 0.000555 -0.0025 0.5
0.0633413 0.000555 0.0025 0.5
0.0636191 0.0002775 0.0025 0.5
0.0636191 0.0002775 -0.0025 0.5
0.0474353 0.0424999 2.27954e-20 0.5
0.0474617 0.0425017 0.0025 0.5
0.0474617 0.0425017 -0.0025 0.5
0.0638969 0.0002775 -5.95927e-22 0.5
0.0641747 0.0002775 0.0025 0.5
0.0641747 0.0002775 -0.0025 0.5
0.0476055 0.043112 -0.00169799 0.5
0.0476055 0.043112 0.00169799 0.5
0.0476055 0.043112 0.0025 0.5
0.0476055 0.043112 -0.0025 0.5
0.0475816 0.04329 -0.0025 0.5
0.0475816 0.04329 0.0025 0.5
0.0644525 0.000555 -0.0025 0.5
0.0644525 0.000555 0.0025 0.5
0.0476892 0.0433844 0.00207473 0.5
0.0476892 0.0433844 -0.00207473 0.5
0.0476892 0.0433844 0.0025 0.5
0.0476892 0.0433844 -0.0025 0.5
0.0647303 0.0002775 0.0025 0.5
0.0647303 0.0002775 -0.0025 0.5
0.0477506 0.043845 6.76681e-19 0.5
0.0650081 0.0002775 0 0.5
0.0477667 0.0443829 -0.00242311 0.5
0.0477667 0.0443829 0.00242311 0.5
0.0477667 0.0443829 0.0025 0.5
0.0477667 0.0443829 -0.0025 0.5
0.0477525 0.0444 0.0025 0.5
0.0477525 0.0444 -0.0025 0.5
0.0477685 0.0444152 0.00243153 0.5
0.0477685 0.0444152 -0.00243153 0.5
0.0477685 0.0444152 0.0025 0.5
0.0477685 0.0444152 -0.0025 0.5
0.0652859 0.0002775 0.0025 0.5
0.0652859 0.0002775 -0.0025 0.5
0.0477837 0.044955 -7.41456e-19 0.5
0.0655638 0.000555 -0.0025 0.5
0.0655638 0.000555 0.0025 0.5
0.0658416 0.0002775 0.0025 0.5
0.0658416 0.0002775 -0.0025 0.5
0.0477837 0.04551 -0.0025 0.5
0.0477837 0.04551 0.0025 0.5
0.0661194 0.0002775 -1.81913e-21 0.5
0.0477837 0.046065 6.07467e-19 0.5
0.0663972 0.0002775 0.0025 0.5
0.0663972 0.0002775 -0.0025 0.5
0.066675 0.000555 -0.0025 0.5
0.066675 0.000555 0.0025 0.5
0.047833 0.0465708 -0.00227827 0.5
0.047833 0.0465708 0.00227827 0.5
0.047833 0.0465708 -0.0025 0.5
0.047833 0.0465708 0.0025 0.5
0.0478919 0.04662 0.0025 0.5
0.0478919 0.04662 -0.0025 0.5
0.0478601 0.0466963 -0.00215635 0.5
0.0478601 0.0466963 0.00215635 0.5
0.0478601 0.0466963 0.0025 0.5
0.0478601 0.0466963 -0.0025 0.5
0.0669528 0.0002775 0.0025 0.5
0.0669528 0.0002775 -0.0025 0.5
0.0672306 0.0002775 9.10876e-20 0.5
0.047918 0.047175 -8.62712e-19 0.5
0.0675084 0.0002775 0.0025 0.5
0.0675084 0.0002775 -0.0025 0.5
0.0479746 0.0475393 -0.00164109 0.5
0.0479746 0.0475393 0.00164109 0.5
0.0479746 0.0475393 -0.0025 0.5
0.0479746 0.0475393 0.0025 0.5
0.0677863 0.000555 -0.0025 0.5
0.0677863 0.000555 0.0025 0.5
0.0481389 0.04773 0.0025 0.5
0.0481389 0.04773 -0.0025 0.5
0.0680641 0.0002775 0.0025 0.5
0.0680641 0.0002775 -0.0025 0.5
0.0481964 0.0481421 -0.0025 0.5
0.0481964 0.0481421 0.0025 0.5
0.0482324 0.0483149 1.08073e-18 0.5
0.0683419 0.0002775 1.14121e-19 0.5
0.0482411 0.0483831 0.0025 0.5
0.0482411 0.0483831 -0.0025 0.5
0.0686197 0.0002775 0.0025 0.5
0.0686197 0.0002775 -0.0025 0.5
0.048357 0.04884 0.0025 0.5
0.048357 0.04884 -0.0025 0.5
0.0688975 0.000555 -0.0025 0.5
0.0688975 0.000555 0.0025 0.5
0.0484865 0.0492481 -0.0025 0.5
0.0484865 0.0492481 0.0025 0.5
0.0691753 0.0002775 0.0025 0.5
0.0691753 0.0002775 -0.0025 0.5
0.0485028 0.0494053 -1.11508e-18 0.5
0.0485175 0.049573 0.0025 0.5
0.0485175 0.049573 -0.0025 0.5
0.0694531 0.0002775 9.36031e-20 0.5
0.0484846 0.04995 0.0025 0.5
0.0484846 0.04995 -0.0025 0.5
0.0697309 0.0002775 0.0025 0.5
0.0697309 0.0002775 -0.0025 0.5
0.0486091 0.0502356 -0.0025 0.5
0.0486091 0.0502356 0.0025 0.5
0.0486149 0.0503254 4.27946e-21 0.5
0.0700088 0.000555 -0.0025 0.5
0.0700088 0.000555 0.0025 0.5
0.0702866 0.0002775 0.0025 0.5
0.0702866 0.0002775 -0.0025 0.5
0.0486389 0.0508042 -0.00134787 0.5
0.0486389 0.0508042 0.00134787 0.5
0.0486389 0.0508042 0.0025 0.5
0.0486389 0.0508042 -0.0025 0.5
0.048564 0.05106 0.0025 0.5
0.048564 0.05106 -0.0025 0.5
0.0705644 0.0002775 2.66209e-19 0.5
0.0486767 0.0512781 0.00151765 0.5
0.0486767 0.0512781 -0.00151765 0.5
0.0486767 0.0512781 0.0025 0.5
0.0486767 0.0512781 -0.0025 0.5
0.0708422 0.0002775 0.0025 0.5
0.0708422 0.0002775 -0.0025 0.5
0.0486896 0.051615 -3.69264e-18 0.5
0.07112 0.000555 -0.0025 0.5
0.07112 0.000555 0.0025 0.5
0.0486976 0.0519729 0.00161201 0.5
0.0486976 0.0519729 -0.00161201 0.5
0.0486976 0.0519729 0.0025 0.5
0.0486976 0.0519729 -0.0025 0.5
0.0486133 0.05217 0.0025 0.5
0.0486133 0.05217 -0.0025 0.5
0.0713978 0.0002775 0.0025 0.5
0.0713978 0.0002775 -0.0025 0.5
0.0487143 0.0523505 0.00168698 0.5
0.0487143 0.0523505 -0.00168698 0.5
0.0487143 0.0523505 0.0025 0.5
0.0487143 0.0523505 -0.0025 0.5
0.0716756 0.0002775 9.36031e-20 0.5
0.0487224 0.052725 3.34979e-18 0.5
0.0719534 0.0002775 0.0025 0.5
0.0719534 0.0002775 -0.0025 0.5
0.0487267 0.0531119 0.00174272 0.5
0.0487267 0.0531119 -0.00174272 0.5
0.0487267 0.0531119 0.0025 0.5
0.0487267 0.0531119 -0.0025 0.5
0.048641 0.05328 0.0025 0.5
0.048641 0.05328 -0.0025 0.5
0.0722313 0.000555 -0.0025 0.5
0.0722313 0.000555 0.0025 0.5
0.0487339 0.0534409 0.00177531 0.5
0.0487339 0.0534409 -0.00177531 0.5
0.0487339 0.0534409 0.0025 0.5
0.0487339 0.0534409 -0.0025 0.5
0.0725091 0.0002775 0.0025 0.5
0.0725091 0.0002775 -0.0025 0.5
0.0487382 0.053835 -4.77891e-18 0.5
0.0727869 0.0002775 1.145e-19 0.5
0.0487394 0.0542345 0.00179974 0.5
0.0487394 0.0542345 -0.00179974 0.5
0.0487394 0.0542345 0.0025 0.5
0.0487394 0.0542345 -0.0025 0.5
0.0486529 0.05439 0.0025 0.5
0.0486529 0.05439 -0.0025 0.5
0.0730647 0.0002775 0.0025 0.5
0.0730647 0.0002775 -0.0025 0.5
0.0487411 0.0545437 0.00180765 0.5
0.0487411 0.0545437 -0.00180765 0.5
0.0487411 0.0545437 0.0025 0.5
0.0487411 0.0545437 -0.0025 0.5
0.0733425 0.000555 -0.0025 0.5
0.0733425 0.000555 0.0025 0.5
0.0487423 0.054945 4.80803e-18 0.5
0.0736203 0.0002775 0.0025 0.5
0.0736203 0.0002775 -0.0025 0.5
0.0487406 0.0553458 -0.0018052 0.5
0.0487406 0.0553458 0.0018052 0.5
0.0487406 0.0553458 0.0025 0.5
0.0487406 0.0553458 -0.0025 0.5
0.0486517 0.0555 0.0025 0.5
0.0486517 0.0555 -0.0025 0.5
0.0738981 0.0002775 1.12679e-19 0.5
0.048738 0.0556569 0.0017934 0.5
0.048738 0.0556569 -0.0017934 0.5
0.048738 0.0556569 0.0025 0.5
0.048738 0.0556569 -0.0025 0.5
0.0741759 0.0002775 0.0025 0.5
0.0741759 0.0002775 -0.0025 0.5
0.0487363 0.056055 -2.16029e-18 0.5
0.0744538 0.000555 -0.0025 0.5
0.0744538 0.000555 0.0025 0.5
0.0487325 0.0564476 -0.00176868 0.5
0.0487325 0.0564476 0.00176868 0.5
0.0487325 0.0564476 0.0025 0.5
0.0487325 0.0564476 -0.0025 0.5
0.0486397 0.05661 0.0025 0.5
0.0486397 0.05661 -0.0025 0.5
0.0747316 0.0002775 0.0025 0.5
0.0747316 0.0002775 -0.0025 0.5
0.048726 0.0567788 0.00173949 0.5
0.048726 0.0567788 -0.00173949 0.5
0.048726 0.0567788 0.0025 0.5
0.048726 0.0567788 -0.0025 0.5
0.0750094 0.0002775 1.14375e-19 0.5
0.0487222 0.057165 2.32381e-18 0.5
0.0752872 0.0002775 0.0025 0.5
0.0752872 0.0002775 -0.0025 0.5
0.0487171 0.0575423 0.00169964 0.5
0.0487171 0.0575423 -0.00169964 0.5
0.0487171 0.0575423 0.0025 0.5
0.0487171 0.0575423 -0.0025 0.5
0.04862 0.05772 0.0025 0.5
0.04862 0.05772 -0.0025 0.5
0.075565 0.000555 -0.0025 0.5
0.075565 0.000555 0.0025 0.5
0.0487072 0.0579076 -0.00165516 0.5
0.0487072 0.0579076 0.00165516 0.5
0.0487072 0.0579076 0.0025 0.5
0.0487072 0.0579076 -0.0025 0.5
0.0758428 0.0002775 0.0025 0.5
0.0758428 0.0002775 -0.0025 0.5
0.0487022 0.058275 -2.97392e-18 0.5
0.0761206 0.0002775 1.14623e-19 0.5
0.0486959 0.0586312 0.00160434 0.5
0.0486959 0.0586312 -0.00160434 0.5
0.0486959 0.0586312 0.0025 0.5
0.0486959 0.0586312 -0.0025 0.5
0.0485943 0.05883 0.0025 0.5
0.0485943 0.05883 -0.0025 0.5
0.0763984 0.0002775 0.0025 0.5
0.0763984 0.0002775 -0.0025 0.5
0.0486812 0.0590436 0.00153799 0.5
0.0486812 0.0590436 -0.00153799 0.5
0.0486812 0.0590436 0.0025 0.5
0.0486812 0.0590436 -0.0025 0.5
0.0766763 0.000555 -0.0025 0.5
0.0766763 0.000555 0.0025 0.5
0.048675 0.059385 3.08382e-18 0.5
0.0769541 0.0002775 0.0025 0.5
0.0769541 0.0002775 -0.0025 0.5
0.0486684 0.0597137 -0.00148052 0.5
0.0486684 0.0597137 0.00148052 0.5
0.0486684 0.0597137 0.0025 0.5
0.0486684 0.0597137 -0.0025 0.5
0.0485639 0.05994 0.0025 0.5
0.0485639 0.05994 -0.0025 0.5
0.0772319 0.0002775 1.08196e-19 0.5
0.0486492 0.0601855 -0.00139408 0.5
0.0486492 0.0601855 0.00139408 0.5
0.0486492 0.0601855 0.0025 0.5
0.0486492 0.0601855 -0.0025 0.5
0.0775097 0.0002775 0.0025 0.5
0.0775097 0.0002775 -0.0025 0.5
0.0486428 0.060495 -4.91732e-18 0.5
0.0777875 0.000555 -0.0025 0.5
0.0777875 0.000555 0.0025 0.5
0.0486359 0.0607912 0.0013342 0.5
0.0486359 0.0607912 -0.0013342 0.5
0.0486359 0.0607912 0.0025 0.5
0.0486359 0.0607912 -0.0025 0.5
0.0485303 0.06105 0.0025 0.5
0.0485303 0.06105 -0.0025 0.5
0.0780653 0.0002775 0.0025 0.5
0.0780653 0.0002775 -0.0025 0.5
0.0486101 0.0613346 0.0025 0.5
0.0486101 0.0613346 -0.0025 0.5
0.0783431 0.0002775 8.26565e-20 0.5
0.0486035 0.0616006 4.27659e-18 0.5
0.0786209 0.0002775 0.0025 0.5
0.0786209 0.0002775 -0.0025 0.5
0.048597 0.0618623 0.0025 0.5
0.048597 0.0618623 -0.0025 0.5
0.0484942 0.06216 -0.0025 0.5
0.0484942 0.06216 0.0025 0.5
0.0788988 0.000555 -0.0025 0.5
0.0788988 0.000555 0.0025 0.5
0.0485644 0.0624903 0.0025 0.5
0.0485644 0.0624903 -0.0025 0.5
0.0791766 0.0002775 0.0025 0.5
0.0791766 0.0002775 -0.0025 0.5
0.0485585 0.0627112 1.95446e-19 0.5
0.0794544 0.0002775 9.54222e-20 0.5
0.0485529 0.0629283 0.0025 0.5
0.0485529 0.0629283 -0.0025 0.5
0.048458 0.06327 0.0025 0.5
0.048458 0.06327 -0.0025 0.5
0.0797322 0.0002775 0.0025 0.5
0.0797322 0.0002775 -0.0025 0.5
0.08001 0.000555 -0.0025 0.5
0.08001 0.000555 0.0025 0.5
0.0485149 0.0636497 0.0025 0.5
0.0485149 0.0636497 -0.0025 0.5
0.0485103 0.0638219 3.50382e-21 0.5
0.0802878 0.0002775 0.0025 0.5
0.0802878 0.0002775 -0.0025 0.5
0.0485057 0.0639911 0.0025 0.5
0.0485057 0.0639911 -0.0025 0.5
0.0805656 0.0002775 1.15842e-19 0.5
0.0484225 0.06438 0.0025 0.5
0.0484225 0.06438 -0.0025 0.5
0.0808434 0.0002775 0.0025 0.5
0.0808434 0.0002775 -0.0025 0.5
0.0484599 0.0648147 0.0025 0.5
0.0484599 0.0648147 -0.0025 0.5
0.0484593 0.0649356 0 0.5
0.0811213 0.000555 -0.0025 0.5
0.0811213 0.000555 0.0025 0.5
0.0484618 0.0650573 0.0025 0.5
0.0484618 0.0650573 -0.0025 0.5
0.0813991 0.0002775 0.0025 0.5
0.0813991 0.0002775 -0.0025 0.5
0.048432 0.06549 0.0025 0.5
0.048432 0.06549 -0.0025 0.5
0.0816769 0.0002775 9.5745e-20 0.5
0.0485288 0.0658558 0.0025 0.5
0.0485288 0.0658558 -0.0025 0.5
0.0485314 0.0659188 0 0.5
0.0819547 0.0002775 0.0025 0.5
0.0819547 0.0002775 -0.0025 0.5
0.048895 0.0658165 -0.0025 0.5
0.048895 0.0658165 0.0025 0.5
0.0822325 0.000555 -0.0025 0.5
0.0822325 0.000555 0.0025 0.5
0.0825103 0.0002775 0.0025 0.5
0.0825103 0.0002775 -0.0025 0.5
0.0491728 0.0663225 0.0025 0.5
0.0491728 0.0663225 -0.0025 0.5
0.0494506 0.0663225 0 0.5
0.0827881 0.0002775 8.32524e-20 0.5
0.0500063 0.066045 -0.0025 0.5
0.0500063 0.066045 0.0025 0.5
0.0497284 0.0663225 0.0025 0.5
0.0497284 0.0663225 -0.0025 0.5
0.0830659 0.0002775 0.0025 0.5
0.0830659 0.0002775 -0.0025 0.5
0.0502841 0.0663225 0.0025 0.5
0.0502841 0.0663225 -0.0025 0.5
0.0833437 0.000555 -0.0025 0.5
0.0833437 0.000555 0.0025 0.5
0.0505619 0.0663225 0 0.5
0.0511175 0.066045 -0.0025 0.5
0.0511175 0.066045 0.0025 0.5
0.0508397 0.0663225 0.0025 0.5
0.0508397 0.0663225 -0.0025 0.5
0.0836216 0.0002775 0.0025 0.5
0.0836216 0.0002775 -0.0025 0.5
0.0838994 0.0002775 3.228e-22 0.5
0.0513953 0.0663225 0.0025 0.5
0.0513953 0.0663225 -0.0025 0.5
0.0516731 0.0663225 0 0.5
0.0841772 0.0002775 0.0025 0.5
0.0841772 0.0002775 -0.0025 0.5
0.0522288 0.066045 -0.0025 0.5
0.0522288 0.066045 0.0025 0.5
0.0519509 0.0663225 0.0025 0.5
0.0519509 0.0663225 -0.0025 0.5
0.084455 0.000555 -0.0025 0.5
0.084455 0.000555 0.0025 0.5
0.0525066 0.0663225 0.0025 0.5
0.0525066 0.0663225 -0.0025 0.5
0.0527844 0.0663225 0 0.5
0.0847328 0.0002775 0.0025 0.5
0.0847328 0.0002775 -0.0025 0.5
0.05334 0.066045 -0.0025 0.5
0.05334 0.066045 0.0025 0.5
0.0530622 0.0663225 0.0025 0.5
0.0530622 0.0663225 -0.0025 0.5
0.0850106 0.0002775 0 0.5
0.0536178 0.0663225 0.0025 0.5
0.0536178 0.0663225 -0.0025 0.5
0.0852884 0.0002775 0.0025 0.5
0.0852884 0.0002775 -0.0025 0.5
0.0538956 0.0663225 0 0.5
0.0855663 0.000555 -0.0025 0.5
0.0855663 0.000555 0.0025 0.5
0.0544513 0.066045 -0.0025 0.5
0.0544513 0.066045 0.0025 0.5
0.0541734 0.0663225 0.0025 0.5
0.0541734 0.0663225 -0.0025 0.5
0.0858441 0.0002775 0.0025 0.5
0.0858441 0.0002775 -0.0025 0.5
0.0547291 0.0663225 0.0025 0.5
0.0547291 0.0663225 -0.0025 0.5
0.0861219 0.0002775 0 0.5
0.0550069 0.0663225 0 0.5
0.0555625 0.066045 -0.0025 0.5
0.0555625 0.066045 0.0025 0.5
0.0552847 0.0663225 0.0025 0.5
0.0552847 0.0663225 -0.0025 0.5
0.0863997 0.0002775 0.0025 0.5
0.0863997 0.0002775 -0.0025 0.5
0.0866775 0.000555 -0.0025 0.5
0.0866775 0.000555 0.0025 0.5
0.0558403 0.0663225 0.0025 0.5
0.0558403 0.0663225 -0.0025 0.5