# f_l  POINT_DATA 1199
#  x  y  z  f_l
0.0755364 0.001665 1.66877e-19 0.5
0.0755642 0.002775 1.63665e-19 0.5
0.0755426 0.00222 0.0025 0.5
0.0755426 0.00222 -0.0025 0.5
0.0755499 0.00220496 -0.00243226 0.5
0.0755499 0.00220496 0.00243226 0.5
0.0755505 0.00223449 0.00243471 0.5
0.0755505 0.00223449 -0.00243471 0.5
0.0755499 0.00220496 0.0025 0.5
0.0755499 0.00220496 -0.0025 0.5
0.0755505 0.00223449 0.0025 0.5
0.0755505 0.00223449 -0.0025 0.5
0.075565 0.00193431 -0.0025 0.5
0.075565 0.00193431 0.0025 0.5
0.0756026 0.00114751 -0.00233102 0.5
0.0756026 0.00114751 0.00233102 0.5
0.0756026 0.00114751 0.0025 0.5
0.0756026 0.00114751 -0.0025 0.5
0.0756252 0.00104989 -0.00222922 0.5
0.0756252 0.00104989 0.00222922 0.5
0.075565 0.00301613 -0.0025 0.5
0.075565 0.00301613 0.0025 0.5
0.0756252 0.00104989 0.0025 0.5
0.0756252 0.00104989 -0.0025 0.5
0.075627 0.00111 0.0025 0.5
0.075627 0.00111 -0.0025 0.5
0.0755776 0.003885 3.0031e-19 0.5
0.0755708 0.00332421 -0.00247392 0.5
0.0755708 0.00332421 0.00247392 0.5
0.075571 0.00333598 -0.00247307 0.5
0.075571 0.00333598 0.00247307 0.5
0.0755708 0.00332421 0.0025 0.5
0.0755708 0.00332421 -0.0025 0.5
0.075571 0.00333598 0.0025 0.5
0.075571 0.00333598 -0.0025 0.5
0.0755735 0.00333 0.0025 0.5
0.0755735 0.00333 -0.0025 0.5
0.0755828 0.00442223 -0.00241995 0.5
0.0755828 0.00442223 0.00241995 0.5
0.0755833 0.00445826 -0.00241776 0.5
0.0755833 0.00445826 0.00241776 0.5
0.0755828 0.00442223 0.0025 0.5
0.0755828 0.00442223 -0.0025 0.5
0.0755885 0.004995 4.87496e-20 0.5
0.0755833 0.00445826 0.0025 0.5
0.0755833 0.00445826 -0.0025 0.5
0.0755906 0.00444 0.0025 0.5
0.0755906 0.00444 -0.0025 0.5
0.0755937 0.00552133 -0.00237087 0.5
0.0755937 0.00552133 0.00237087 0.5
0.0755937 0.00552133 0.0025 0.5
0.0755937 0.00552133 -0.0025 0.5
0.0755945 0.00557947 -0.00236727 0.5
0.0755945 0.00557947 0.00236727 0.5
0.0755945 0.00557947 0.0025 0.5
0.0755945 0.00557947 -0.0025 0.5
0.0755997 0.006105 4.92235e-20 0.5
0.0756058 0.00555 0.0025 0.5
0.0756058 0.00555 -0.0025 0.5
0.0756052 0.00661984 -0.0023191 0.5
0.0756052 0.00661984 0.0023191 0.5
0.0756052 0.00661984 0.0025 0.5
0.0756052 0.00661984 -0.0025 0.5
0.0756064 0.00670132 -0.00231386 0.5
0.0756064 0.00670132 0.00231386 0.5
0.0756064 0.00670132 0.0025 0.5
0.0756064 0.00670132 -0.0025 0.5
0.0756119 0.007215 -8.01285e-20 0.5
0.0756215 0.00666 0.0025 0.5
0.0756215 0.00666 -0.0025 0.5
0.0759735 0.00040804 0.0025 0.5
0.0759735 0.00040804 -0.0025 0.5
0.0756182 0.00771689 -0.00226076 0.5
0.0756182 0.00771689 0.00226076 0.5
0.0756182 0.00771689 0.0025 0.5
0.0756182 0.00771689 -0.0025 0.5
0.07562 0.00782493 -0.00225258 0.5
0.07562 0.00782493 0.00225258 0.5
0.07562 0.00782493 -0.0025 0.5
0.07562 0.00782493 0.0025 0.5
0.0760731 0.000417838 1.75284e-19 0.5
0.0756389 0.00777 0.0025 0.5
0.0756389 0.00777 -0.0025 0.5
0.0756263 0.008325 5.94935e-20 0.5
0.0756334 0.00881163 -0.00219203 0.5
0.0756334 0.00881163 0.00219203 0.5
0.0756334 0.00881163 0.0025 0.5
0.0756334 0.00881163 -0.0025 0.5
0.0756362 0.00895109 -0.00217975 0.5
0.0756362 0.00895109 0.00217975 0.5
0.0756362 0.00895109 0.0025 0.5
0.0756362 0.00895109 -0.0025 0.5
0.075659 0.00888 0.0025 0.5
0.075659 0.00888 -0.0025 0.5
0.0756433 0.009435 -1.12065e-19 0.5
0.0762678 0.00040804 0.0025 0.5
0.0762678 0.00040804 -0.0025 0.5
0.0756512 0.00990386 -0.00211198 0.5
0.0756512 0.00990386 0.00211198 0.5
0.0756512 0.00990386 0.0025 0.5
0.0756512 0.00990386 -0.0025 0.5
0.0756552 0.0100801 -0.00209417 0.5
0.0756552 0.0100801 0.00209417 0.5
0.0756552 0.0100801 0.0025 0.5
0.0756552 0.0100801 -0.0025 0.5
0.0756817 0.00999 0.0025 0.5
0.0756817 0.00999 -0.0025 0.5
0.0756631 0.010545 1.23521e-19 0.5
0.0756718 0.0109933 -0.00201954 0.5
0.0756718 0.0109933 0.00201954 0.5
0.0756718 0.0109933 0.0025 0.5
0.0756718 0.0109933 -0.0025 0.5
0.0756774 0.0112123 -0.00199419 0.5
0.0756774 0.0112123 0.00199419 0.5
0.0756774 0.0112123 0.0025 0.5
0.0756774 0.0112123 -0.0025 0.5
0.0757071 0.0111 0.0025 0.5
0.0757071 0.0111 -0.0025 0.5
0.0756861 0.011655 -5.98147e-19 0.5
0.0756954 0.0120797 -0.00191324 0.5
0.0756954 0.0120797 0.00191324 0.5
0.0756954 0.0120797 0.0025 0.5
0.0756954 0.0120797 -0.0025 0.5
0.0766763 0.000637598 -0.0025 0.5
0.0766763 0.000637598 0.0025 0.5
0.0757032 0.0123481 -0.00187798 0.5
0.0757032 0.0123481 0.00187798 0.5
0.0757032 0.0123481 -0.0025 0.5
0.0757032 0.0123481 0.0025 0.5
0.0757352 0.01221 0.0025 0.5
0.0757352 0.01221 -0.0025 0.5
0.0757125 0.012765 7.37125e-19 0.5
0.0757224 0.0131627 -0.00179163 0.5
0.0757224 0.0131627 0.00179163 0.5
0.0757224 0.0131627 0.0025 0.5
0.0757224 0.0131627 -0.0025 0.5
0.0757332 0.013488 -0.00174331 0.5
0.0757332 0.013488 0.00174331 0.5
0.0757332 0.013488 0.0025 0.5
0.0757332 0.013488 -0.0025 0.5
0.0757662 0.01332 0.0025 0.5
0.0757662 0.01332 -0.0025 0.5
0.0769541 0.0002775 0.0025 0.5
0.0769541 0.0002775 -0.0025 0.5
0.075743 0.013875 2.90556e-19 0.5
0.0757533 0.0142419 -0.00165284 0.5
0.0757533 0.0142419 0.00165284 0.5
0.0757533 0.0142419 0.0025 0.5
0.0757533 0.0142419 -0.0025 0.5
0.0757678 0.0146326 -0.00158741 0.5
0.0757678 0.0146326 0.00158741 0.5
0.0757999 0.01443 0.0025 0.5
0.0757999 0.01443 -0.0025 0.5
0.0757678 0.0146326 0.0025 0.5
0.0757678 0.0146326 -0.0025 0.5
0.0772319 0.0002775 1.08196e-19 0.5
0.0757779 0.014985 2.23636e-20 0.5
0.0757884 0.0153168 -0.00149465 0.5
0.0757884 0.0153168 0.00149465 0.5
0.0757884 0.0153168 0.0025 0.5
0.0757884 0.0153168 -0.0025 0.5
0.0758079 0.0157827 0.0014069 0.5
0.0758079 0.0157827 -0.0014069 0.5
0.0758365 0.01554 0.0025 0.5
0.0758365 0.01554 -0.0025 0.5
0.0758079 0.0157827 0.0025 0.5
0.0758079 0.0157827 -0.0025 0.5
0.075818 0.016095 2.23535e-19 0.5
0.0775097 0.0002775 0.0025 0.5
0.0775097 0.0002775 -0.0025 0.5
0.0758285 0.0163868 -0.00131433 0.5
0.0758285 0.0163868 0.00131433 0.5
0.0758285 0.0163868 0.0025 0.5
0.0758285 0.0163868 -0.0025 0.5
0.075876 0.01665 -0.0025 0.5
0.075876 0.01665 0.0025 0.5
0.0758546 0.0169393 0.0025 0.5
0.0758546 0.0169393 -0.0025 0.5
0.0758644 0.0171984 3.9161e-19 0.5
0.0777875 0.000555 -0.0025 0.5
0.0777875 0.000555 0.0025 0.5
0.0758743 0.017451 0.0025 0.5
0.0758743 0.017451 -0.0025 0.5
0.0759184 0.01776 0.0025 0.5
0.0759184 0.01776 -0.0025 0.5
0.0759092 0.0181038 0.0025 0.5
0.0759092 0.0181038 -0.0025 0.5
0.075918 0.0183091 2.67276e-19 0.5
0.0780653 0.0002775 0.0025 0.5
0.0780653 0.0002775 -0.0025 0.5
0.0759268 0.0185086 -0.0025 0.5
0.0759268 0.0185086 0.0025 0.5
0.0759639 0.01887 -0.0025 0.5
0.0759639 0.01887 0.0025 0.5
0.0783431 0.0002775 8.26565e-20 0.5
0.0759734 0.0192779 0.0025 0.5
0.0759734 0.0192779 -0.0025 0.5
0.0759803 0.0194204 -7.38714e-20 0.5
0.0759871 0.0195583 0.0025 0.5
0.0759871 0.0195583 -0.0025 0.5
0.076012 0.01998 0.0025 0.5
0.076012 0.01998 -0.0025 0.5
0.0786209 0.0002775 0.0025 0.5
0.0786209 0.0002775 -0.0025 0.5
0.0760531 0.0205326 -5.2186e-19 0.5
0.0760494 0.0204639 0.0025 0.5
0.0760494 0.0204639 -0.0025 0.5
0.0760567 0.0205989 0.0025 0.5
0.0760567 0.0205989 -0.0025 0.5
0.0788988 0.000555 -0.0025 0.5
0.0788988 0.000555 0.0025 0.5
0.0760619 0.02109 -0.0025 0.5
0.0760619 0.02109 0.0025 0.5
0.0761351 0.0216278 6.20937e-19 0.5
0.0761357 0.02163 -0.0025 0.5
0.0761357 0.02163 0.0025 0.5
0.0761367 0.0216611 -0.0025 0.5
0.0761367 0.0216611 0.0025 0.5
0.0791766 0.0002775 0.0025 0.5
0.0791766 0.0002775 -0.0025 0.5
0.0761118 0.0222 0.0025 0.5
0.0761118 0.0222 -0.0025 0.5
0.0794544 0.0002775 9.54222e-20 0.5
0.0762087 0.0227569 1.08674e-21 0.5
0.0762059 0.0226699 0.0025 0.5
0.0762059 0.0226699 -0.0025 0.5
0.0762116 0.0228458 0.0025 0.5
0.0762116 0.0228458 -0.0025 0.5
0.0761597 0.02331 0.0025 0.5
0.0761597 0.02331 -0.0025 0.5
0.0797322 0.0002775 0.0025 0.5
0.0797322 0.0002775 -0.0025 0.5
0.0762655 0.0237202 0.0025 0.5
0.0762655 0.0237202 -0.0025 0.5
0.0762699 0.0238679 4.64782e-22 0.5
0.0762744 0.0240186 0.0025 0.5
0.0762744 0.0240186 -0.0025 0.5
0.08001 0.000555 -0.0025 0.5
0.08001 0.000555 0.0025 0.5
0.0762051 0.02442 0.0025 0.5
0.0762051 0.02442 -0.0025 0.5
0.0763177 0.0247781 -0.0025 0.5
0.0763177 0.0247781 0.0025 0.5
0.0763233 0.0249788 6.79068e-22 0.5
0.0802878 0.0002775 0.0025 0.5
0.0802878 0.0002775 -0.0025 0.5
0.076329 0.0251832 -0.0025 0.5
0.076329 0.0251832 0.0025 0.5
0.0762489 0.02553 0.0025 0.5
0.0762489 0.02553 -0.0025 0.5
0.0805656 0.0002775 1.15842e-19 0.5
0.0763648 0.0258411 0.0025 0.5
0.0763648 0.0258411 -0.0025 0.5
0.0763713 0.0260894 1.16872e-20 0.5
0.0763779 0.026342 0.0025 0.5
0.0763779 0.026342 -0.0025 0.5
0.0762913 0.02664 0.0025 0.5
0.0762913 0.02664 -0.0025 0.5
0.0808434 0.0002775 0.0025 0.5
0.0808434 0.0002775 -0.0025 0.5
0.0764067 0.0269092 0.00128732 0.5
0.0764067 0.0269092 -0.00128732 0.5
0.0764067 0.0269092 0.0025 0.5
0.0764067 0.0269092 -0.0025 0.5
0.0764138 0.027195 1.106e-19 0.5
0.0811213 0.000555 -0.0025 0.5
0.0811213 0.000555 0.0025 0.5
0.076421 0.027495 -0.00135141 0.5
0.076421 0.027495 0.00135141 0.5
0.076421 0.027495 0.0025 0.5
0.076421 0.027495 -0.0025 0.5
0.0763316 0.02775 0.0025 0.5
0.0763316 0.02775 -0.0025 0.5
0.0764437 0.0279823 -0.00145364 0.5
0.0764437 0.0279823 0.00145364 0.5
0.0813991 0.0002775 0.0025 0.5
0.0813991 0.0002775 -0.0025 0.5
0.0764437 0.0279823 -0.0025 0.5
0.0764437 0.0279823 0.0025 0.5
0.076451 0.028305 2.24475e-19 0.5
0.0764581 0.0286421 -0.0015183 0.5
0.0764581 0.0286421 0.0015183 0.5
0.0816769 0.0002775 9.5745e-20 0.5
0.0763686 0.02886 0.0025 0.5
0.0763686 0.02886 -0.0025 0.5
0.0764581 0.0286421 0.0025 0.5
0.0764581 0.0286421 -0.0025 0.5
0.0764752 0.0290609 0.00159517 0.5
0.0764752 0.0290609 -0.00159517 0.5
0.0764752 0.0290609 0.0025 0.5
0.0764752 0.0290609 -0.0025 0.5
0.0764822 0.029415 2.58264e-19 0.5
0.0819547 0.0002775 0.0025 0.5
0.0819547 0.0002775 -0.0025 0.5
0.0764894 0.0297833 -0.00165922 0.5
0.0764894 0.0297833 0.00165922 0.5
0.0764028 0.02997 -0.0025 0.5
0.0764028 0.02997 0.0025 0.5
0.0764894 0.0297833 0.0025 0.5
0.0764894 0.0297833 -0.0025 0.5
0.0765031 0.030143 0.00172088 0.5
0.0765031 0.030143 -0.00172088 0.5
0.0765031 0.030143 0.0025 0.5
0.0765031 0.030143 -0.0025 0.5
0.0822325 0.000555 -0.0025 0.5
0.0822325 0.000555 0.0025 0.5
0.0765102 0.030525 -2.58084e-20 0.5
0.0765157 0.0309197 -0.00177778 0.5
0.0765157 0.0309197 0.00177778 0.5
0.0764319 0.03108 0.0025 0.5
0.0764319 0.03108 -0.0025 0.5
0.0825103 0.0002775 0.0025 0.5
0.0825103 0.0002775 -0.0025 0.5
0.0765157 0.0309197 0.0025 0.5
0.0765157 0.0309197 -0.0025 0.5
0.0765243 0.0312318 0.00181638 0.5
0.0765243 0.0312318 -0.00181638 0.5
0.0765243 0.0312318 0.0025 0.5
0.0765243 0.0312318 -0.0025 0.5
0.0827881 0.0002775 8.32524e-20 0.5
0.0765298 0.031635 1.37994e-18 0.5
0.0765796 0.0320934 -0.00206494 0.5
0.0765796 0.0320934 0.00206494 0.5
0.0765306 0.03219 -0.0025 0.5
0.0765306 0.03219 0.0025 0.5
0.0765796 0.0320934 -0.0025 0.5
0.0765796 0.0320934 0.0025 0.5
0.0830659 0.0002775 0.0025 0.5
0.0830659 0.0002775 -0.0025 0.5
0.0765906 0.0322755 -0.00211474 0.5
0.0765906 0.0322755 0.00211474 0.5
0.0765906 0.0322755 -0.0025 0.5
0.0765906 0.0322755 0.0025 0.5
0.0766474 0.032745 -1.05291e-18 0.5
0.0833437 0.000555 -0.0025 0.5
0.0833437 0.000555 0.0025 0.5
0.0766722 0.0333 -0.0025 0.5
0.0766722 0.0333 0.0025 0.5
0.0766737 0.0332975 -0.00248865 0.5
0.0766737 0.0332975 0.00248865 0.5
0.0766737 0.0332975 -0.0025 0.5
0.0766737 0.0332975 0.0025 0.5
0.0766739 0.0333024 0.00248932 0.5
0.0766739 0.0333024 -0.00248932 0.5
0.0766739 0.0333024 0.0025 0.5
0.0766739 0.0333024 -0.0025 0.5
0.0836216 0.0002775 0.0025 0.5
0.0836216 0.0002775 -0.0025 0.5
0.0767012 0.033855 1.91506e-19 0.5
0.0838994 0.0002775 3.228e-22 0.5
0.0766293 0.03441 0.0025 0.5
0.0766293 0.03441 -0.0025 0.5
0.0766485 0.0343823 -0.00237511 0.5
0.0766485 0.0343823 0.00237511 0.5
0.0766485 0.0343823 0.0025 0.5
0.0766485 0.0343823 -0.0025 0.5
0.0766479 0.0344383 0.00237265 0.5
0.0766479 0.0344383 -0.00237265 0.5
0.0766479 0.0344383 0.0025 0.5
0.0766479 0.0344383 -0.0025 0.5
0.0766033 0.034965 1.30718e-19 0.5
0.0841772 0.0002775 0.0025 0.5
0.0841772 0.0002775 -0.0025 0.5
0.0765854 0.03552 -0.0025 0.5
0.0765854 0.03552 0.0025 0.5
0.0766216 0.0354654 0.0022542 0.5
0.0766216 0.0354654 -0.0022542 0.5
0.0766216 0.0354654 0.0025 0.5
0.0766216 0.0354654 -0.0025 0.5
0.084455 0.000555 -0.0025 0.5
0.084455 0.000555 0.0025 0.5
0.0766239 0.0355723 0.00226464 0.5
0.0766239 0.0355723 -0.00226464 0.5
0.0766239 0.0355723 0.0025 0.5
0.0766239 0.0355723 -0.0025 0.5
0.076643 0.036075 6.92249e-19 0.5
0.0847328 0.0002775 0.0025 0.5
0.0847328 0.0002775 -0.0025 0.5
0.0766416 0.03663 0.0025 0.5
0.0766416 0.03663 -0.0025 0.5
0.0766558 0.0366096 -0.00240804 0.5
0.0766558 0.0366096 0.00240804 0.5
0.0766558 0.0366096 0.0025 0.5
0.0766558 0.0366096 -0.0025 0.5
0.0766564 0.0366499 0.00241051 0.5
0.0766564 0.0366499 -0.00241051 0.5
0.0766564 0.0366499 -0.0025 0.5
0.0766564 0.0366499 0.0025 0.5
0.0850106 0.0002775 0 0.5
0.0766695 0.037185 -3.23828e-19 0.5
0.0852884 0.0002775 0.0025 0.5
0.0852884 0.0002775 -0.0025 0.5
0.0766763 0.0375836 -0.0025 0.5
0.0766763 0.0375836 0.0025 0.5
0.0766795 0.0377367 -0.00248523 0.5
0.0766795 0.0377367 0.00248523 0.5
0.0766795 0.0377367 0.0025 0.5
0.0766795 0.0377367 -0.0025 0.5
0.0766797 0.0377435 -0.00248442 0.5
0.0766797 0.0377435 0.00248442 0.5
0.0766797 0.0377435 0.0025 0.5
0.0766797 0.0377435 -0.0025 0.5
0.0766821 0.03774 0.0025 0.5
0.0766821 0.03774 -0.0025 0.5
0.0855663 0.000555 -0.0025 0.5
0.0855663 0.000555 0.0025 0.5
0.0766899 0.038295 2.15319e-19 0.5
0.0858441 0.0002775 0.0025 0.5
0.0858441 0.0002775 -0.0025 0.5
0.0766974 0.0388288 -0.00240472 0.5
0.0766974 0.0388288 0.00240472 0.5
0.0766974 0.0388288 0.0025 0.5
0.0766974 0.0388288 -0.0025 0.5
0.0766983 0.038872 -0.00240069 0.5
0.0766983 0.038872 0.00240069 0.5
0.0766983 0.038872 0.0025 0.5
0.0766983 0.038872 -0.0025 0.5
0.0767127 0.03885 0.0025 0.5
0.0767127 0.03885 -0.0025 0.5
0.0861219 0.0002775 0 0.5
0.0767059 0.039405 1.69593e-19 0.5
0.0863997 0.0002775 0.0025 0.5
0.0863997 0.0002775 -0.0025 0.5
0.076711 0.0399252 -0.00234345 0.5
0.076711 0.0399252 0.00234345 0.5
0.076711 0.0399252 0.0025 0.5
0.076711 0.0399252 -0.0025 0.5
0.0767121 0.0399958 -0.00233882 0.5
0.0767121 0.0399958 0.00233882 0.5
0.0767121 0.0399958 0.0025 0.5
0.0767121 0.0399958 -0.0025 0.5
0.0767347 0.03996 0.0025 0.5
0.0767347 0.03996 -0.0025 0.5
0.0866775 0.000555 -0.0025 0.5
0.0866775 0.000555 0.0025 0.5
0.0767172 0.040515 9.68328e-19 0.5
0.0869553 0.0002775 0.0025 0.5
0.0869553 0.0002775 -0.0025 0.5
0.0767203 0.041026 -0.00230163 0.5
0.0767203 0.041026 0.00230163 0.5
0.0767203 0.041026 -0.0025 0.5
0.0767203 0.041026 0.0025 0.5
0.0767212 0.0411149 -0.00229791 0.5
0.0767212 0.0411149 0.00229791 0.5
0.0767212 0.0411149 -0.0025 0.5
0.0767212 0.0411149 0.0025 0.5
0.0767492 0.04107 -0.0025 0.5
0.0767492 0.04107 0.0025 0.5
0.0872331 0.0002775 0 0.5
0.0767243 0.041625 -1.82574e-18 0.5
0.0875109 0.0002775 0.0025 0.5
0.0875109 0.0002775 -0.0025 0.5
0.0767267 0.0421296 0.00227285 0.5
0.0767267 0.0421296 -0.00227285 0.5
0.0767267 0.0421296 0.0025 0.5
0.0767267 0.0421296 -0.0025 0.5
0.0767275 0.0422312 0.00226958 0.5
0.0767275 0.0422312 -0.00226958 0.5
0.0767275 0.0422312 0.0025 0.5
0.0767275 0.0422312 -0.0025 0.5
0.0767589 0.04218 0.0025 0.5
0.0767589 0.04218 -0.0025 0.5
0.0877888 0.000555 -0.0025 0.5
0.0877888 0.000555 0.0025 0.5
0.0767299 0.042735 1.42979e-18 0.5
0.0880666 0.0002775 -0.00125 0.5
0.0880666 0.0002775 0.00125 0.5
0.0767308 0.0432355 -0.00225467 0.5
0.0767308 0.0432355 0.00225467 0.5
0.0880666 0.0002775 0.0025 0.5
0.0880666 0.0002775 -0.0025 0.5
0.0767308 0.0432355 0.0025 0.5
0.0767308 0.0432355 -0.0025 0.5
0.076731 0.0433447 -0.0022536 0.5
0.076731 0.0433447 0.0022536 0.5
0.076731 0.0433447 0.0025 0.5
0.076731 0.0433447 -0.0025 0.5
0.0767647 0.04329 0.0025 0.5
0.0767647 0.04329 -0.0025 0.5
0.0883444 0.0002775 0 0.5
0.0767319 0.043845 1.42399e-19 0.5
0.0883444 0.00111 0.0025 0.5
0.0883444 0.00111 -0.0025 0.5
0.0883444 0.00222 0.0025 0.5
0.0883444 0.00222 -0.0025 0.5
0.0883444 0.00333 0.0025 0.5
0.0883444 0.00333 -0.0025 0.5
0.0883444 0.00444 0.0025 0.5
0.0883444 0.00444 -0.0025 0.5
0.0883444 0.00555 0.0025 0.5
0.0883444 0.00555 -0.0025 0.5
0.0886222 0.000555 0 0.5
0.0883444 0.00666 0.0025 0.5
0.0883444 0.00666 -0.0025 0.5
0.0886222 0.0002775 -0.00125 0.5
0.0886222 0.0002775 0.00125 0.5
0.0886222 0.0008325 0.00125 0.5
0.0886222 0.0008325 -0.00125 0.5
0.0886222 0.001665 0 0.5
0.0767301 0.0443463 -0.00225792 0.5
0.0767301 0.0443463 0.00225792 0.5
0.0886222 0.0002775 0.0025 0.5
0.0886222 0.0002775 -0.0025 0.5
0.0767301 0.0443463 0.0025 0.5
0.0767301 0.0443463 -0.0025 0.5
0.0886222 0.0008325 0.0025 0.5
0.0886222 0.0008325 -0.0025 0.5
0.0886222 0.002775 0 0.5
0.0886222 0.0013875 0.0025 0.5
0.0886222 0.0013875 -0.0025 0.5
0.0886222 0.0019425 0.0025 0.5
0.0886222 0.0019425 -0.0025 0.5
0.0886222 0.0024975 0.0025 0.5
0.0886222 0.0024975 -0.0025 0.5
0.0767295 0.0444532 -0.0022604 0.5
0.0767295 0.0444532 0.0022604 0.5
0.0886222 0.003885 0 0.5
0.0886222 0.0030525 0.0025 0.5
0.0886222 0.0030525 -0.0025 0.5
0.0767295 0.0444532 0.0025 0.5
0.0767295 0.0444532 -0.0025 0.5
0.076763 0.0444 -0.0025 0.5
0.076763 0.0444 0.0025 0.5
0.0883444 0.00777 0.0025 0.5
0.0883444 0.00777 -0.0025 0.5
0.0886222 0.0036075 0.0025 0.5
0.0886222 0.0036075 -0.0025 0.5
0.0886222 0.0041625 0.0025 0.5
0.0886222 0.0041625 -0.0025 0.5
0.0886222 0.004995 -1.81603e-19 0.5
0.0886222 0.0047175 0.0025 0.5
0.0886222 0.0047175 -0.0025 0.5
0.0886222 0.0052725 0.0025 0.5
0.0886222 0.0052725 -0.0025 0.5
0.0883444 0.00888 0.0025 0.5
0.0883444 0.00888 -0.0025 0.5
0.0886222 0.006105 -4.31797e-21 0.5
0.0886222 0.0058275 0.0025 0.5
0.0886222 0.0058275 -0.0025 0.5
0.0886222 0.0063825 0.0025 0.5
0.0886222 0.0063825 -0.0025 0.5
0.0886222 0.007215 3.76366e-21 0.5
0.0767277 0.044955 2.66717e-18 0.5
0.0886222 0.0069375 -0.0025 0.5
0.0886222 0.0069375 0.0025 0.5
0.0883444 0.00999 0.0025 0.5
0.0883444 0.00999 -0.0025 0.5
0.0886222 0.0074925 -0.0025 0.5
0.0886222 0.0074925 0.0025 0.5
0.0886222 0.008325 1.10296e-21 0.5
0.0886222 0.0080475 -0.0025 0.5
0.0886222 0.0080475 0.0025 0.5
0.0886222 0.0086025 -0.0025 0.5
0.0886222 0.0086025 0.0025 0.5
0.0883444 0.0111 0.0025 0.5
0.0883444 0.0111 -0.0025 0.5
0.0886222 0.009435 1.92878e-21 0.5
0.0886222 0.0091575 0.0025 0.5
0.0886222 0.0091575 -0.0025 0.5
0.0886222 0.0097125 0.0025 0.5
0.0886222 0.0097125 -0.0025 0.5
0.0767242 0.0454621 -0.00228406 0.5
0.0767242 0.0454621 0.00228406 0.5
0.0767242 0.0454621 -0.0025 0.5
0.0767242 0.0454621 0.0025 0.5
0.0883444 0.01221 0.0025 0.5
0.0883444 0.01221 -0.0025 0.5
0.0886222 0.010545 3.88923e-21 0.5
0.0886222 0.0102675 0.0025 0.5
0.0886222 0.0102675 -0.0025 0.5
0.0767233 0.045557 -0.00228837 0.5
0.0767233 0.045557 0.00228837 0.5
0.0767233 0.045557 0.0025 0.5
0.0767233 0.045557 -0.0025 0.5
0.0767538 0.04551 -0.0025 0.5
0.0767538 0.04551 0.0025 0.5
0.0886222 0.0108225 0.0025 0.5
0.0886222 0.0108225 -0.0025 0.5
0.0883444 0.01332 0.0025 0.5
0.0883444 0.01332 -0.0025 0.5
0.0886222 0.0113775 0.0025 0.5
0.0886222 0.0113775 -0.0025 0.5
0.0886222 0.011655 2.78619e-21 0.5
0.0886222 0.0119325 0.0025 0.5
0.0886222 0.0119325 -0.0025 0.5
0.0767198 0.046065 -2.44509e-18 0.5
0.0886222 0.0124875 -0.0025 0.5
0.0886222 0.0124875 0.0025 0.5
0.0886222 0.012765 1.81655e-19 0.5
0.0883444 0.01443 0.0025 0.5
0.0883444 0.01443 -0.0025 0.5
0.0886222 0.0130425 -0.0025 0.5
0.0886222 0.0130425 0.0025 0.5
0.0886222 0.0135975 0.0025 0.5
0.0886222 0.0135975 -0.0025 0.5
0.0886222 0.013875 0 0.5
0.0883444 0.01554 0.0025 0.5
0.0883444 0.01554 -0.0025 0.5
0.0767148 0.0465815 -0.00232664 0.5
0.0767148 0.0465815 0.00232664 0.5
0.0886222 0.0141525 0.0025 0.5
0.0886222 0.0141525 -0.0025 0.5
0.0767148 0.0465815 0.0025 0.5
0.0767148 0.0465815 -0.0025 0.5
0.0767137 0.0466574 0.00233156 0.5
0.0767137 0.0466574 -0.00233156 0.5
0.0767137 0.0466574 0.0025 0.5
0.0767137 0.0466574 -0.0025 0.5
0.076739 0.04662 0.0025 0.5
0.076739 0.04662 -0.0025 0.5
0.0886222 0.0147075 -0.0025 0.5
0.0886222 0.0147075 0.0025 0.5
0.0886222 0.014985 7.52748e-21 0.5
0.0883444 0.01665 0.0025 0.5
0.0883444 0.01665 -0.0025 0.5
0.0886222 0.0152625 -0.0025 0.5
0.0886222 0.0152625 0.0025 0.5
0.0767087 0.047175 -3.06633e-20 0.5
0.0886222 0.0158175 0.0025 0.5
0.0886222 0.0158175 -0.0025 0.5
0.0886222 0.016095 0 0.5
0.0883444 0.01776 0.0025 0.5
0.0883444 0.01776 -0.0025 0.5
0.0886222 0.0163725 0.0025 0.5
0.0886222 0.0163725 -0.0025 0.5
0.0886222 0.0169275 0.0025 0.5
0.0886222 0.0169275 -0.0025 0.5
0.0886222 0.017205 0 0.5
0.076702 0.0477042 -0.00238398 0.5
0.076702 0.0477042 0.00238398 0.5
0.076702 0.0477042 0.0025 0.5
0.076702 0.0477042 -0.0025 0.5
0.0886222 0.0174825 0.0025 0.5
0.0886222 0.0174825 -0.0025 0.5
0.0883444 0.01887 0.0025 0.5
0.0883444 0.01887 -0.0025 0.5
0.0767011 0.0477548 -0.00238811 0.5
0.0767011 0.0477548 0.00238811 0.5
0.0767011 0.0477548 0.0025 0.5
0.0767011 0.0477548 -0.0025 0.5
0.0767187 0.04773 0.0025 0.5
0.0767187 0.04773 -0.0025 0.5
0.0886222 0.0180375 0.0025 0.5
0.0886222 0.0180375 -0.0025 0.5
0.0886222 0.018315 -4.24739e-19 0.5
0.0886222 0.0185925 0.0025 0.5
0.0886222 0.0185925 -0.0025 0.5
0.0883444 0.01998 0.0025 0.5
0.0883444 0.01998 -0.0025 0.5
0.0766946 0.048285 2.10823e-19 0.5
0.0886222 0.0191475 0.0025 0.5
0.0886222 0.0191475 -0.0025 0.5
0.0886222 0.019425 2.54579e-19 0.5
0.0886222 0.0197025 0.0025 0.5
0.0886222 0.0197025 -0.0025 0.5
0.0883444 0.02109 0.0025 0.5
0.0883444 0.02109 -0.0025 0.5
0.0886222 0.0202575 0.0025 0.5
0.0886222 0.0202575 -0.0025 0.5
0.0766865 0.0488298 -0.00245393 0.5
0.0766865 0.0488298 0.00245393 0.5
0.0766865 0.0488298 0.0025 0.5
0.0766865 0.0488298 -0.0025 0.5
0.0766861 0.0488498 0.00245583 0.5
0.0766861 0.0488498 -0.00245583 0.5
0.0766861 0.0488498 0.0025 0.5
0.0766861 0.0488498 -0.0025 0.5
0.0766934 0.04884 0.0025 0.5
0.0766934 0.04884 -0.0025 0.5
0.0886222 0.020535 -4.2863e-21 0.5
0.0886222 0.0208125 0.0025 0.5
0.0886222 0.0208125 -0.0025 0.5
0.0883444 0.0222 0.0025 0.5
0.0883444 0.0222 -0.0025 0.5
0.0886222 0.0213675 0.0025 0.5
0.0886222 0.0213675 -0.0025 0.5
0.0766781 0.049395 1.57086e-18 0.5
0.0886222 0.021645 -2.44648e-21 0.5
0.0766763 0.0494786 -0.0025 0.5
0.0766763 0.0494786 0.0025 0.5
0.0886222 0.0219225 0.0025 0.5
0.0886222 0.0219225 -0.0025 0.5
0.0883444 0.02331 0.0025 0.5
0.0883444 0.02331 -0.0025 0.5
0.0886222 0.0224775 0.0025 0.5
0.0886222 0.0224775 -0.0025 0.5
0.0886222 0.022755 -2.49561e-19 0.5
0.076669 0.0499428 -0.00246746 0.5
0.076669 0.0499428 0.00246746 0.5
0.0766637 0.04995 0.0025 0.5
0.0766637 0.04995 -0.0025 0.5
0.076669 0.0499428 0.0025 0.5
0.076669 0.0499428 -0.0025 0.5
0.0766689 0.0499574 0.00246683 0.5
0.0766689 0.0499574 -0.00246683 0.5
0.0766689 0.0499574 0.0025 0.5
0.0766689 0.0499574 -0.0025 0.5
0.0886222 0.0230325 0.0025 0.5
0.0886222 0.0230325 -0.0025 0.5
0.0883444 0.02442 0.0025 0.5
0.0883444 0.02442 -0.0025 0.5
0.0886222 0.0235875 0.0025 0.5
0.0886222 0.0235875 -0.0025 0.5
0.0886222 0.023865 4.33092e-19 0.5
0.0766599 0.050505 -1.07308e-18 0.5
0.0886222 0.0241425 0.0025 0.5
0.0886222 0.0241425 -0.0025 0.5
0.0883444 0.02553 0.0025 0.5
0.0883444 0.02553 -0.0025 0.5
0.0886222 0.0246975 -0.0025 0.5
0.0886222 0.0246975 0.0025 0.5
0.0886222 0.024975 1.19177e-21 0.5
0.0766505 0.0510343 -0.00238433 0.5
0.0766505 0.0510343 0.00238433 0.5
0.0766317 0.05106 -0.0025 0.5
0.0766317 0.05106 0.0025 0.5
0.0766505 0.0510343 0.0025 0.5
0.0766505 0.0510343 -0.0025 0.5
0.07665 0.0510862 -0.00238187 0.5
0.07665 0.0510862 0.00238187 0.5
0.07665 0.0510862 -0.0025 0.5
0.07665 0.0510862 0.0025 0.5
0.0886222 0.0252525 0.0025 0.5
0.0886222 0.0252525 -0.0025 0.5
0.0883444 0.02664 0.0025 0.5
0.0883444 0.02664 -0.0025 0.5
0.0886222 0.0258075 0.0025 0.5
0.0886222 0.0258075 -0.0025 0.5
0.0886222 0.026085 9.22105e-21 0.5
0.0766407 0.051615 1.47907e-19 0.5
0.0886222 0.0263625 0.0025 0.5
0.0886222 0.0263625 -0.0025 0.5
0.0883444 0.02775 0.0025 0.5
0.0883444 0.02775 -0.0025 0.5
0.0886222 0.0269175 0.0025 0.5
0.0886222 0.0269175 -0.0025 0.5
0.0886222 0.027195 1.2044e-20 0.5
0.0766314 0.0521252 -0.00229815 0.5
0.0766314 0.0521252 0.00229815 0.5
0.0765991 0.05217 0.0025 0.5
0.0765991 0.05217 -0.0025 0.5
0.0766314 0.0521252 0.0025 0.5
0.0766314 0.0521252 -0.0025 0.5
0.0766304 0.0522158 -0.00229359 0.5
0.0766304 0.0522158 0.00229359 0.5
0.0766304 0.0522158 0.0025 0.5
0.0766304 0.0522158 -0.0025 0.5
0.0886222 0.0274725 0.0025 0.5
0.0886222 0.0274725 -0.0025 0.5
0.0883444 0.02886 0.0025 0.5
0.0883444 0.02886 -0.0025 0.5
0.0886222 0.0280275 0.0025 0.5
0.0886222 0.0280275 -0.0025 0.5
0.0766212 0.052725 2.27079e-19 0.5
0.0886222 0.028305 -8.22717e-21 0.5
0.0886222 0.0285825 0.0025 0.5
0.0886222 0.0285825 -0.0025 0.5
0.0766121 0.0532159 -0.00221126 0.5
0.0766121 0.0532159 0.00221126 0.5
0.0765667 0.05328 -0.0025 0.5
0.0765667 0.05328 0.0025 0.5
0.0766121 0.0532159 0.0025 0.5
0.0766121 0.0532159 -0.0025 0.5
0.0886222 0.0291375 0.0025 0.5
0.0886222 0.0291375 -0.0025 0.5
0.0883444 0.02997 0.0025 0.5
0.0883444 0.02997 -0.0025 0.5
0.0886222 0.029415 -6.85063e-19 0.5
0.0766106 0.0533456 0.00220452 0.5
0.0766106 0.0533456 -0.00220452 0.5
0.0766106 0.0533456 0.0025 0.5
0.0766106 0.0533456 -0.0025 0.5
0.0886222 0.0296925 0.0025 0.5
0.0886222 0.0296925 -0.0025 0.5
0.0766016 0.053835 -1.26346e-18 0.5
0.0886222 0.0302475 0.0025 0.5
0.0886222 0.0302475 -0.0025 0.5
0.0883444 0.03108 0.0025 0.5
0.0883444 0.03108 -0.0025 0.5
0.0886222 0.030525 6.22217e-19 0.5
0.0886222 0.0308025 0.0025 0.5
0.0886222 0.0308025 -0.0025 0.5
0.0765929 0.0543067 -0.00212492 0.5
0.0765929 0.0543067 0.00212492 0.5
0.0765929 0.0543067 0.0025 0.5
0.0765929 0.0543067 -0.0025 0.5
0.0765349 0.05439 0.0025 0.5
0.0765349 0.05439 -0.0025 0.5
0.0765909 0.0544753 -0.00211596 0.5
0.0765909 0.0544753 0.00211596 0.5
0.0765909 0.0544753 -0.0025 0.5
0.0765909 0.0544753 0.0025 0.5
0.0886222 0.0313575 0.0025 0.5
0.0886222 0.0313575 -0.0025 0.5
0.0883444 0.03219 0.0025 0.5
0.0883444 0.03219 -0.0025 0.5
0.0886222 0.031635 -3.88923e-21 0.5
0.0886222 0.0319125 0.0025 0.5
0.0886222 0.0319125 -0.0025 0.5
0.0765823 0.054945 -8.49654e-19 0.5
0.0886222 0.0324675 0.0025 0.5
0.0886222 0.0324675 -0.0025 0.5
0.0883444 0.0333 0.0025 0.5
0.0883444 0.0333 -0.0025 0.5
0.0886222 0.032745 0 0.5
0.0765735 0.0553974 0.00203765 0.5
0.0765735 0.0553974 -0.00203765 0.5
0.0765735 0.0553974 0.0025 0.5
0.0765735 0.0553974 -0.0025 0.5
0.0765033 0.0555 0.0025 0.5
0.0765033 0.0555 -0.0025 0.5
0.0886222 0.0330225 0.0025 0.5
0.0886222 0.0330225 -0.0025 0.5
0.0765709 0.0556052 0.00202602 0.5
0.0765709 0.0556052 -0.00202602 0.5
0.0765709 0.0556052 0.0025 0.5
0.0765709 0.0556052 -0.0025 0.5
0.0886222 0.0335775 0.0025 0.5
0.0886222 0.0335775 -0.0025 0.5
0.0883444 0.03441 0.0025 0.5
0.0883444 0.03441 -0.0025 0.5
0.0886222 0.033855 0 0.5
0.0765623 0.056055 2.27264e-18 0.5
0.0886222 0.0341325 0.0025 0.5
0.0886222 0.0341325 -0.0025 0.5
0.0765586 0.0564924 -0.00197046 0.5
0.0765586 0.0564924 0.00197046 0.5
0.0765586 0.0564924 0.0025 0.5
0.0765586 0.0564924 -0.0025 0.5
0.07648 0.05661 0.0025 0.5
0.07648 0.05661 -0.0025 0.5
0.0886222 0.0346875 0.0025 0.5
0.0886222 0.0346875 -0.0025 0.5
0.0883444 0.03552 0.0025 0.5
0.0883444 0.03552 -0.0025 0.5
0.0886222 0.034965 -3.39789e-22 0.5
0.0765552 0.0567309 0.00195523 0.5
0.0765552 0.0567309 -0.00195523 0.5
0.0765552 0.0567309 0.0025 0.5
0.0765552 0.0567309 -0.0025 0.5
0.0886222 0.0352425 0.0025 0.5
0.0886222 0.0352425 -0.0025 0.5
0.0765514 0.057165 6.17958e-19 0.5
0.0886222 0.0357975 0.0025 0.5
0.0886222 0.0357975 -0.0025 0.5
0.0883444 0.03663 0.0025 0.5
0.0883444 0.03663 -0.0025 0.5
0.0886222 0.036075 1.76716e-21 0.5
0.0765484 0.0575922 -0.00192455 0.5
0.0765484 0.0575922 0.00192455 0.5
0.0886222 0.0363525 0.0025 0.5
0.0886222 0.0363525 -0.0025 0.5
0.0765484 0.0575922 0.0025 0.5
0.0765484 0.0575922 -0.0025 0.5
0.0764657 0.05772 0.0025 0.5
0.0764657 0.05772 -0.0025 0.5
0.0765446 0.0578515 0.00190755 0.5
0.0765446 0.0578515 -0.00190755 0.5
0.0765446 0.0578515 0.0025 0.5
0.0765446 0.0578515 -0.0025 0.5
0.0886222 0.0369075 0.0025 0.5
0.0886222 0.0369075 -0.0025 0.5
0.0883444 0.03774 0.0025 0.5
0.0883444 0.03774 -0.0025 0.5
0.0886222 0.037185 -6.78638e-19 0.5
0.0765415 0.058275 -1.54235e-18 0.5
0.0886222 0.0374625 0.0025 0.5
0.0886222 0.0374625 -0.0025 0.5
0.0886222 0.0380175 -0.0025 0.5
0.0886222 0.0380175 0.0025 0.5
0.0765387 0.0586926 -0.00188097 0.5
0.0765387 0.0586926 0.00188097 0.5
0.0765387 0.0586926 0.0025 0.5
0.0765387 0.0586926 -0.0025 0.5
0.0764529 0.05883 -0.0025 0.5
0.0764529 0.05883 0.0025 0.5
0.0883444 0.03885 0.0025 0.5
0.0883444 0.03885 -0.0025 0.5
0.0886222 0.038295 1.29532e-18 0.5
0.0765349 0.0589712 -0.00186407 0.5
0.0765349 0.0589712 0.00186407 0.5
0.0765349 0.0589712 0.0025 0.5
0.0765349 0.0589712 -0.0025 0.5
0.0886222 0.0385725 -0.0025 0.5
0.0886222 0.0385725 0.0025 0.5
0.0765321 0.059385 1.85689e-18 0.5
0.0886222 0.0391275 -0.0025 0.5
0.0886222 0.0391275 0.0025 0.5
0.0886222 0.039405 -6.22645e-19 0.5
0.0883444 0.03996 0.0025 0.5
0.0883444 0.03996 -0.0025 0.5
0.0886222 0.0396825 -0.0025 0.5
0.0886222 0.0396825 0.0025 0.5
0.0765297 0.0597937 -0.0018408 0.5
0.0765297 0.0597937 0.0018408 0.5
0.0765297 0.0597937 0.0025 0.5
0.0765297 0.0597937 -0.0025 0.5
0.0764415 0.05994 0.0025 0.5
0.0764415 0.05994 -0.0025 0.5
0.0765263 0.0600898 -0.00182532 0.5
0.0765263 0.0600898 0.00182532 0.5
0.0765263 0.0600898 0.0025 0.5
0.0765263 0.0600898 -0.0025 0.5
0.0886222 0.0402375 0.0025 0.5
0.0886222 0.0402375 -0.0025 0.5
0.0886222 0.040515 -2.0701e-21 0.5
0.0883444 0.04107 0.0025 0.5
0.0883444 0.04107 -0.0025 0.5
0.0765239 0.060495 -4.08685e-18 0.5
0.0886222 0.0407925 0.0025 0.5
0.0886222 0.0407925 -0.0025 0.5
0.076522 0.060896 0.00180613 0.5
0.076522 0.060896 -0.00180613 0.5
0.0886222 0.0413475 0.0025 0.5
0.0886222 0.0413475 -0.0025 0.5
0.076522 0.060896 0.0025 0.5
0.076522 0.060896 -0.0025 0.5
0.0764319 0.06105 0.0025 0.5
0.0764319 0.06105 -0.0025 0.5
0.0886222 0.041625 0 0.5
0.0883444 0.04218 0.0025 0.5
0.0883444 0.04218 -0.0025 0.5
0.0765191 0.061207 0.00179282 0.5
0.0765191 0.061207 -0.00179282 0.5
0.0765191 0.061207 0.0025 0.5
0.0765191 0.061207 -0.0025 0.5
0.0886222 0.0419025 0.0025 0.5
0.0886222 0.0419025 -0.0025 0.5
0.0765172 0.061605 4.56262e-18 0.5
0.0886222 0.0424575 0.0025 0.5
0.0886222 0.0424575 -0.0025 0.5
0.0886222 0.042735 0 0.5
0.0883444 0.04329 0.0025 0.5