0 	0 	0 	0
0.000446734 	2.90377e-06 	0.000247743 	-8.79936e-27
0.000893467 	5.80755e-06 	0.000495485 	-1.75987e-26
0.0013402 	7.36052e-06 	0.00062865 	-1.96581e-26
0.00178693 	7.62859e-06 	0.000652826 	-1.53062e-26
0.00223367 	7.987e-06 	0.000673833 	-1.0952e-26
0.0026804 	1.18689e-05 	0.000571273 	-6.50449e-27
0.00312714 	1.57507e-05 	0.000468712 	-2.05698e-27
0.00357387 	2.38883e-05 	0.000341543 	0
0.0040206 	3.56879e-05 	0.000193199 	0
0.00446734 	4.75255e-05 	4.5693e-05 	0
0.00491407 	6.00866e-05 	-8.58941e-05 	0
0.0053608 	7.26477e-05 	-0.000217481 	0
0.00580754 	7.7329e-05 	-0.00031645 	0
0.00625427 	7.58816e-05 	-0.00039005 	0
0.00670101 	7.23095e-05 	-0.000458242 	-6.09059e-28
0.00714774 	4.25328e-05 	-0.000459739 	-8.72984e-27
0.00759447 	1.27561e-05 	-0.000461237 	-1.68506e-26
0.00804121 	-3.90228e-05 	-0.000426104 	-2.4744e-26
0.00848794 	-0.00010625 	-0.000365251 	-3.24777e-26
0.00893467 	-0.000177721 	-0.000300134 	-3.86259e-26
0.00938141 	-0.000287384 	-0.000196627 	-3.05051e-26
0.00982814 	-0.000397047 	-9.31198e-05 	-2.23843e-26
0.0102749 	-0.000535372 	2.66972e-05 	-1.45006e-26
0.0107216 	-0.00069183 	0.000156833 	-6.76697e-27
0.0111683 	-0.000854816 	0.000289357 	-3.66558e-28
0.0116151 	-0.00106349 	0.000438601 	-3.29902e-27
0.0120618 	-0.00127217 	0.000587845 	-6.23148e-27
0.0125085 	-0.0015175 	0.000748194 	-8.87708e-27
0.0129553 	-0.00178368 	0.000914857 	-1.13596e-26
0.013402 	-0.00205882 	0.00108401 	-1.30298e-26
0.0138487 	-0.00238477 	0.00126729 	-1.00974e-26
0.0142955 	-0.00271072 	0.00145057 	-7.1649e-27
0.0147422 	-0.00307402 	0.00164244 	-4.53055e-27
0.0151889 	-0.00345634 	0.00183868 	-2.04806e-27
0.0156357 	-0.00384672 	0.00203583 	0
0.0160824 	-0.00427511 	0.00223722 	0
0.0165291 	-0.00470349 	0.00243862 	0
0.0169759 	-0.0051523 	0.00263592 	0
0.0174226 	-0.00561039 	0.00283135 	0
0.0178693 	-0.00607043 	0.00302315 	0
0.0183161 	-0.00653831 	0.00320039 	0
0.0187628 	-0.00700619 	0.00337764 	0
0.0192095 	-0.00746664 	0.00353406 	0
0.0196563 	-0.00792408 	0.00368209 	0
0.020103 	-0.00837524 	0.00382175 	0
0.0205497 	-0.00880471 	0.00393259 	0
0.0209965 	-0.00923418 	0.00404343 	0
0.0214432 	-0.00963356 	0.00412387 	0
0.0218899 	-0.0100222 	0.0041935 	0
0.0223367 	-0.0103989 	0.0042528 	5.8652e-28
0.0227834 	-0.0107396 	0.00428114 	2.9326e-27
0.0232302 	-0.0110802 	0.00430947 	5.27868e-27
0.0236769 	-0.0113827 	0.00430869 	7.99658e-27
0.0241236 	-0.0116733 	0.00429886 	1.08303e-26
0.0245704 	-0.0119508 	0.00427996 	1.22396e-26
0.0250171 	-0.0121935 	0.00423717 	9.89348e-27
0.0254638 	-0.0124362 	0.00419438 	7.5474e-27
0.0259106 	-0.012645 	0.0041305 	1.0386e-26
0.0263573 	-0.0128446 	0.00406093 	1.46235e-26
0.026804 	-0.0130331 	0.00398515 	1.98474e-26
0.0272508 	-0.0131957 	0.0038949 	2.73725e-26
0.0276975 	-0.0133582 	0.00380465 	3.48976e-26
0.0281442 	-0.0134954 	0.00370201 	3.05632e-26
0.028591 	-0.0136269 	0.0035965 	2.34919e-26
0.0290377 	-0.0137499 	0.00348746 	1.62731e-26
0.0294844 	-0.0138555 	0.00337108 	8.74795e-27
0.0299312 	-0.013961 	0.00325469 	1.22283e-27
0.0303779 	-0.0140485 	0.00313194 	0
0.0308246 	-0.0141325 	0.00300795 	0
0.0312714 	-0.0142099 	0.0028821 	0
0.0317181 	-0.0142754 	0.00275279 	0
0.0321648 	-0.0143408 	0.00262349 	0
0.0326116 	-0.0143921 	0.00249088 	1.53229e-26
0.0330583 	-0.0144412 	0.00235775 	3.30886e-26
0.033505 	-0.0144848 	0.00222351 	5.09379e-26
0.0339518 	-0.014519 	0.00208744 	6.89268e-26
0.0343985 	-0.0145532 	0.00195136 	8.69156e-26
0.0348452 	-0.0145751 	0.00181307 	7.31723e-26
0.035292 	-0.0145954 	0.00167451 	5.54067e-26
0.0357387 	-0.0146104 	0.001535 	3.75517e-26
0.0361854 	-0.0146174 	0.0013941 	1.95629e-26
0.0366322 	-0.0146244 	0.0012532 	1.57402e-27
0.0370789 	-0.0146197 	0.00111012 	-4.15197e-27
0.0375256 	-0.0146137 	0.000966836 	-8.70208e-27
0.0379724 	-0.0146024 	0.000822465 	-1.33089e-26
0.0384191 	-0.0145837 	0.000676626 	-1.79923e-26
0.0388658 	-0.0145651 	0.000530788 	-2.26758e-26
0.0393126 	-0.0145345 	0.000382338 	-1.87028e-26
0.0397593 	-0.0145031 	0.000233714 	-1.41527e-26
0.040206 	-0.0144659 	8.37244e-05 	-9.54256e-27
0.0406528 	-0.0144216 	-6.79331e-05 	-4.8591e-27
0.0410995 	-0.0143774 	-0.000219591 	-1.7563e-28
0.0415462 	-0.0143205 	-0.000374382 	0
0.041993 	-0.014263 	-0.000529295 	0
0.0424397 	-0.0141992 	-0.000685806 	0
0.0428864 	-0.0141282 	-0.000844083 	0
0.0433332 	-0.0140572 	-0.00100236 	0
0.0437799 	-0.0139721 	-0.00116386 	-5.29317e-27
0.0442266 	-0.0138868 	-0.0013254 	-1.06533e-26
0.0446734 	-0.013794 	-0.00148837 	-1.60806e-26
0.0451201 	-0.0136937 	-0.00165277 	-2.15748e-26
0.0455668 	-0.0135932 	-0.00181721 	-2.69334e-26
0.0460136 	-0.0134769 	-0.00198372 	-2.15732e-26
0.0464603 	-0.0133605 	-0.00215022 	-1.62131e-26
0.046907 	-0.0132351 	-0.00231717 	-1.07825e-26
0.0473538 	-0.0131015 	-0.00248451 	-5.28823e-27
0.0478005 	-0.0129673 	-0.00265181 	2.14645e-28
0.0482472 	-0.0128151 	-0.0028181 	5.93852e-27
0.048694 	-0.0126629 	-0.00298438 	1.16624e-26
0.0491407 	-0.0124995 	-0.00314861 	1.73666e-26
0.0495874 	-0.0123271 	-0.00331115 	2.30546e-26
0.0500342 	-0.0121532 	-0.00347323 	2.80295e-26
0.0504809 	-0.0119586 	-0.00362838 	2.23056e-26
0.0509276 	-0.011764 	-0.00378352 	1.65817e-26
0.0513744 	-0.0115554 	-0.00393164 	1.7434e-26
0.0518211 	-0.0113364 	-0.00407457 	2.31469e-26
0.0522678 	-0.0111151 	-0.00421589 	2.93026e-26
0.0527146 	-0.0108692 	-0.00434043 	4.00771e-26
0.0531613 	-0.0106234 	-0.00446497 	5.08515e-26
0.053608 	-0.0103597 	-0.0045739 	4.83207e-26
0.0540548 	-0.0100843 	-0.00467242 	3.69198e-26
0.0545015 	-0.00980518 	-0.00476701 	2.55893e-26
0.0549482 	-0.00949756 	-0.00483052 	1.48148e-26
0.055395 	-0.00918993 	-0.00489403 	4.04041e-27
0.0558417 	-0.00886112 	-0.00492946 	0
0.0562884 	-0.00851959 	-0.00494804 	0
0.0567352 	-0.00817343 	-0.0049591 	0
0.0571819 	-0.00779817 	-0.00492295 	0
0.0576286 	-0.00742292 	-0.0048868 	0
0.0580754 	-0.00702807 	-0.00480996 	0
0.0585221 	-0.00662268 	-0.00471122 	0
0.0589688 	-0.00621379 	-0.00460177 	-3.88461e-28
0.0594156 	-0.00578691 	-0.00443711 	-2.77899e-27
0.0598623 	-0.00536002 	-0.00427244 	-5.16952e-27
0.060309 	-0.00492864 	-0.00406604 	-6.8303e-27
0.0607558 	-0.0044951 	-0.00383955 	-8.1397e-27
0.0612025 	-0.00406421 	-0.00360404 	-8.75537e-27
0.0616492 	-0.00364478 	-0.00332944 	-6.36484e-27
0.062096 	-0.00322536 	-0.00305484 	-3.97431e-27
0.0625427 	-0.00283274 	-0.00276297 	-2.34056e-27
0.0629894 	-0.00245162 	-0.00246368 	-1.03116e-27
0.0634362 	-0.00208344 	-0.00216548 	0
0.0638829 	-0.00176326 	-0.00187126 	0
0.0643296 	-0.00144308 	-0.00157705 	0
0.0647764 	-0.001178 	-0.00130789 	0
0.0652231 	-0.000933814 	-0.00104824 	0
0.0656698 	-0.000708406 	-0.000802023 	3.55989e-30
0.0661166 	-0.000543281 	-0.000598917 	1.85489e-29
0.0665633 	-0.000378156 	-0.000395811 	3.35379e-29
0.0670101 	-0.00026569 	-0.000242981 	1.79748e-29
0.0674568 	-0.000170776 	-0.00010691 	-7.77225e-30
0.0679035 	-9.0032e-05 	1.15417e-05 	-3.06954e-29
0.0683503 	-4.90967e-05 	8.04898e-05 	-4.56844e-29
0.068797 	-8.16147e-06 	0.000149438 	-6.06734e-29
0.0692437 	4.91294e-06 	0.000171415 	-4.40919e-29
0.0696905 	9.89872e-06 	0.000179756 	-1.83448e-29
0.0701372 	1.20579e-05 	0.000173547 	0
0.0705839 	7.21225e-06 	0.00013128 	0
0.0710307 	2.36656e-06 	8.90131e-05 	0
0.0714774 	9.47997e-07 	5.4651e-05 	-1.84305e-37
0.0719241 	3.86221e-07 	2.22652e-05 	-4.14687e-37
0.0723709 	-9.35175e-14 	6.34433e-13 	-5.73119e-37
0.0728176 	-5.05232e-14 	3.42831e-13 	-5.73259e-37
0.0732643 	-7.52887e-15 	5.12283e-14 	-5.734e-37
0.0737111 	-3.2556e-18 	1.30793e-16 	-3.8336e-37
0.0741578 	-1.30774e-18 	4.94994e-17 	-1.52978e-37
0.0746045 	-1.70392e-20 	-3.7673e-18 	-3.02436e-40
0.0750513 	-1.63187e-20 	-2.01778e-18 	-1.61768e-40
0.075498 	-1.55982e-20 	-2.68258e-19 	-2.11002e-41
0.0759447 	-1.72075e-20 	-6.22119e-21 	0
0.0763915 	-1.92281e-20 	-6.6806e-21 	0
0.0768382 	-2.04537e-20 	-7.15668e-21 	0
0.0772849 	-2.02812e-20 	-7.66204e-21 	0
0.0777317 	-2.01087e-20 	-8.1674e-21 	0
0.0781784 	-1.98131e-20 	-8.72468e-21 	0
0.0786251 	-1.94998e-20 	-9.28938e-21 	0
0.0790719 	-1.91352e-20 	-9.88024e-21 	0
0.0795186 	-1.86895e-20 	-1.05124e-20 	0
0.0799653 	-1.82437e-20 	-1.11446e-20 	0
0.0804121 	-1.76862e-20 	-1.18431e-20 	0
0.0808588 	-1.71163e-20 	-1.25489e-20 	0
0.0813055 	-1.64981e-20 	-1.32878e-20 	0
0.0817523 	-1.58112e-20 	-1.40739e-20 	0
0.082199 	-1.51242e-20 	-1.486e-20 	0
0.0826457 	-1.4335e-20 	-1.57283e-20 	0
0.0830925 	-1.35375e-20 	-1.66033e-20 	0
0.0835392 	-1.26948e-20 	-1.75222e-20 	0
0.0839859 	-1.17942e-20 	-1.84976e-20 	0
0.0844327 	-1.08935e-20 	-1.9473e-20 	0
0.0848794 	-9.90413e-21 	-2.05574e-20 	0
0.0853261 	-8.91014e-21 	-2.16476e-20 	0
0.0857729 	-7.87964e-21 	-2.27984e-20 	0
0.0862196 	-6.80672e-21 	-2.40197e-20 	0
0.0866663 	-5.7338e-21 	-2.52411e-20 	0
0.0871131 	-4.60387e-21 	-2.66062e-20 	0
0.0875598 	-3.47249e-21 	-2.7975e-20 	0
0.0880065 	-2.32575e-21 	-2.30565e-20 	0
0.0884533 	-1.16288e-21 	-1.15282e-20 	0
0.0889 	-3.66466e-35 	-4.26962e-34 	0
