# f_l  POINT_DATA 1265
#  x  y  z  f_l
0.0654929 0.001665 2.26018e-20 0.5
0.0654746 0.00222 0.0025 0.5
0.0654746 0.00222 -0.0025 0.5
0.0655204 0.002775 3.20564e-20 0.5
0.0655055 0.00216181 -0.0022379 0.5
0.0655055 0.00216181 0.0022379 0.5
0.0655074 0.00227624 0.00224667 0.5
0.0655074 0.00227624 -0.00224667 0.5
0.0655055 0.00216181 0.0025 0.5
0.0655055 0.00216181 -0.0025 0.5
0.0655074 0.00227624 0.0025 0.5
0.0655074 0.00227624 -0.0025 0.5
0.0655408 0.00111 0.0025 0.5
0.0655408 0.00111 -0.0025 0.5
0.0655484 0.00112532 0.00243098 0.5
0.0655484 0.00112532 -0.00243098 0.5
0.0655493 0.00109559 -0.0024351 0.5
0.0655493 0.00109559 0.0024351 0.5
0.0655484 0.00112532 0.0025 0.5
0.0655484 0.00112532 -0.0025 0.5
0.0655493 0.00109559 0.0025 0.5
0.0655493 0.00109559 -0.0025 0.5
0.0655638 0.00109202 -0.0025 0.5
0.0655638 0.00109202 0.0025 0.5
0.0655111 0.00333 0.0025 0.5
0.0655111 0.00333 -0.0025 0.5
0.0655297 0.003296 -0.00234684 0.5
0.0655297 0.003296 0.00234684 0.5
0.06554 0.003885 -1.93359e-20 0.5
0.0655305 0.00336324 0.00235027 0.5
0.0655305 0.00336324 -0.00235027 0.5
0.0655297 0.003296 0.0025 0.5
0.0655297 0.003296 -0.0025 0.5
0.0655305 0.00336324 0.0025 0.5
0.0655305 0.00336324 -0.0025 0.5
0.0655432 0.00444 0.0025 0.5
0.0655432 0.00444 -0.0025 0.5
0.0655505 0.00442677 -0.0024404 0.5
0.0655505 0.00442677 0.0024404 0.5
0.0655508 0.00445293 0.00244177 0.5
0.0655508 0.00445293 -0.00244177 0.5
0.0655505 0.00442677 0.0025 0.5
0.0655505 0.00442677 -0.0025 0.5
0.0655508 0.00445293 0.0025 0.5
0.0655508 0.00445293 -0.0025 0.5
0.0655615 0.004995 9.00713e-20 0.5
0.0655638 0.00504402 -0.0025 0.5
0.0655638 0.00504402 0.0025 0.5
0.0655745 0.00553922 -0.00245142 0.5
0.0655745 0.00553922 0.00245142 0.5
0.0655745 0.00553922 0.0025 0.5
0.0655745 0.00553922 -0.0025 0.5
0.0655753 0.00556154 -0.00244801 0.5
0.0655753 0.00556154 0.00244801 0.5
0.0655753 0.00556154 0.0025 0.5
0.0655753 0.00556154 -0.0025 0.5
0.0655808 0.00555 0.0025 0.5
0.0655808 0.00555 -0.0025 0.5
0.0655886 0.006105 -1.61476e-19 0.5
0.065604 0.00661978 -0.00231884 0.5
0.065604 0.00661978 0.00231884 0.5
0.0659307 0.000366579 0.0025 0.5
0.0659307 0.000366579 -0.0025 0.5
0.065604 0.00661978 0.0025 0.5
0.065604 0.00661978 -0.0025 0.5
0.0656076 0.00670379 -0.00230273 0.5
0.0656076 0.00670379 0.00230273 0.5
0.0656076 0.00670379 0.0025 0.5
0.0656076 0.00670379 -0.0025 0.5
0.0656259 0.00666 0.0025 0.5
0.0656259 0.00666 -0.0025 0.5
0.0656233 0.007215 -2.03195e-19 0.5
0.0660606 0.000379141 -3.51118e-21 0.5
0.065641 0.0076928 -0.00215224 0.5
0.065641 0.0076928 0.00215224 0.5
0.065641 0.0076928 0.0025 0.5
0.065641 0.0076928 -0.0025 0.5
0.0656497 0.00785582 -0.00211344 0.5
0.0656497 0.00785582 0.00211344 0.5
0.0656497 0.00785582 -0.0025 0.5
0.0656497 0.00785582 0.0025 0.5
0.0656792 0.00777 0.0025 0.5
0.0656792 0.00777 -0.0025 0.5
0.0656676 0.008325 -2.07488e-19 0.5
0.065687 0.00875686 -0.00194531 0.5
0.065687 0.00875686 0.00194531 0.5
0.065687 0.00875686 0.0025 0.5
0.065687 0.00875686 -0.0025 0.5
0.0657041 0.00902015 -0.00186871 0.5
0.0657041 0.00902015 0.00186871 0.5
0.066308 0.000366579 0.0025 0.5
0.066308 0.000366579 -0.0025 0.5
0.0657041 0.00902015 0.0025 0.5
0.0657041 0.00902015 -0.0025 0.5
0.0657407 0.00888 0.0025 0.5
0.0657407 0.00888 -0.0025 0.5
0.0657234 0.009435 8.36258e-21 0.5
0.065743 0.00981094 -0.00169341 0.5
0.065743 0.00981094 0.00169341 0.5
0.065743 0.00981094 0.0025 0.5
0.065743 0.00981094 -0.0025 0.5
0.0657733 0.0101993 -0.00155721 0.5
0.0657733 0.0101993 0.00155721 0.5
0.0657733 0.0101993 0.0025 0.5
0.0657733 0.0101993 -0.0025 0.5
0.0658088 0.00999 0.0025 0.5
0.0658088 0.00999 -0.0025 0.5
0.0657922 0.010545 3.6488e-22 0.5
0.0658103 0.0108537 -0.00139076 0.5
0.0658103 0.0108537 0.00139076 0.5
0.066675 0.000611272 -0.0025 0.5
0.066675 0.000611272 0.0025 0.5
0.0658103 0.0108537 0.0025 0.5
0.0658103 0.0108537 -0.0025 0.5
0.0658808 0.0111 0.0025 0.5
0.0658808 0.0111 -0.0025 0.5
0.0658594 0.0113953 -0.0025 0.5
0.0658594 0.0113953 0.0025 0.5
0.0658753 0.0116446 4.03757e-21 0.5
0.0669528 0.0002775 0.0025 0.5
0.0669528 0.0002775 -0.0025 0.5
0.0658908 0.0118833 -0.0025 0.5
0.0658908 0.0118833 0.0025 0.5
0.0659555 0.01221 0.0025 0.5
0.0659555 0.01221 -0.0025 0.5
0.065977 0.012758 -1.07479e-19 0.5
0.0659663 0.0126121 0.0025 0.5
0.0659663 0.0126121 -0.0025 0.5
0.0672306 0.0002775 9.10876e-20 0.5
0.0659874 0.0128968 0.0025 0.5
0.0659874 0.0128968 -0.0025 0.5
0.066033 0.01332 0.0025 0.5
0.066033 0.01332 -0.0025 0.5
0.0661072 0.0138824 -2.33052e-19 0.5
0.0675084 0.0002775 0.0025 0.5
0.0675084 0.0002775 -0.0025 0.5
0.066105 0.0138606 0.0025 0.5
0.066105 0.0138606 -0.0025 0.5
0.0661073 0.0138871 0.0025 0.5
0.0661073 0.0138871 -0.0025 0.5
0.066113 0.01443 0.0025 0.5
0.066113 0.01443 -0.0025 0.5
0.0677863 0.000555 -0.0025 0.5
0.0677863 0.000555 0.0025 0.5
0.0662289 0.014989 3.60143e-20 0.5
0.066223 0.0148815 -0.0025 0.5
0.066223 0.0148815 0.0025 0.5
0.0662351 0.0151006 -0.0025 0.5
0.0662351 0.0151006 0.0025 0.5
0.0661944 0.01554 -0.0025 0.5
0.0661944 0.01554 0.0025 0.5
0.0680641 0.0002775 0.0025 0.5
0.0680641 0.0002775 -0.0025 0.5
0.0663205 0.0158941 0.0025 0.5
0.0663205 0.0158941 -0.0025 0.5
0.0663313 0.0161023 7.61976e-20 0.5
0.0683419 0.0002775 1.14121e-19 0.5
0.0663426 0.016318 0.0025 0.5
0.0663426 0.016318 -0.0025 0.5
0.0662757 0.01665 0.0025 0.5
0.0662757 0.01665 -0.0025 0.5
0.0664032 0.0169215 0.00127699 0.5
0.0664032 0.0169215 -0.00127699 0.5
0.0664032 0.0169215 0.0025 0.5
0.0664032 0.0169215 -0.0025 0.5
0.0664167 0.017205 -9.79806e-21 0.5
0.0686197 0.0002775 0.0025 0.5
0.0686197 0.0002775 -0.0025 0.5
0.0664317 0.0175169 -0.00140518 0.5
0.0664317 0.0175169 0.00140518 0.5
0.0663547 0.01776 0.0025 0.5
0.0663547 0.01776 -0.0025 0.5
0.0664317 0.0175169 -0.0025 0.5
0.0664317 0.0175169 0.0025 0.5
0.0664724 0.0179624 0.00158833 0.5
0.0664724 0.0179624 -0.00158833 0.5
0.0664724 0.0179624 0.0025 0.5
0.0664724 0.0179624 -0.0025 0.5
0.0688975 0.000555 -0.0025 0.5
0.0688975 0.000555 0.0025 0.5
0.0664878 0.018315 -4.29469e-19 0.5
0.0664279 0.01887 0.0025 0.5
0.0664279 0.01887 -0.0025 0.5
0.0665034 0.0186986 -0.0017279 0.5
0.0665034 0.0186986 0.0017279 0.5
0.0665034 0.0186986 0.0025 0.5
0.0665034 0.0186986 -0.0025 0.5
0.0665283 0.0190166 0.0018398 0.5
0.0665283 0.0190166 -0.0018398 0.5
0.0691753 0.0002775 0.0025 0.5
0.0691753 0.0002775 -0.0025 0.5
0.0665283 0.0190166 0.0025 0.5
0.0665283 0.0190166 -0.0025 0.5
0.0665436 0.019425 4.09119e-19 0.5
0.0694531 0.0002775 9.36031e-20 0.5
0.0665167 0.01998 0.0025 0.5
0.0665167 0.01998 -0.0025 0.5
0.0665732 0.0198783 0.00204206 0.5
0.0665732 0.0198783 -0.00204206 0.5
0.0665732 0.0198783 0.0025 0.5
0.0665732 0.0198783 -0.0025 0.5
0.0665851 0.0200698 0.00209558 0.5
0.0665851 0.0200698 -0.00209558 0.5
0.0665851 0.0200698 0.0025 0.5
0.0665851 0.0200698 -0.0025 0.5
0.0666157 0.020535 6.45624e-20 0.5
0.0697309 0.0002775 0.0025 0.5
0.0697309 0.0002775 -0.0025 0.5
0.0666583 0.02109 0.0025 0.5
0.0666583 0.02109 -0.0025 0.5
0.0666648 0.0210798 -0.00245427 0.5
0.0666648 0.0210798 0.00245427 0.5
0.0666648 0.0210798 0.0025 0.5
0.0666648 0.0210798 -0.0025 0.5
0.0666658 0.0210992 0.00245847 0.5
0.0666658 0.0210992 -0.00245847 0.5
0.0666658 0.0210992 0.0025 0.5
0.0666658 0.0210992 -0.0025 0.5
0.066675 0.0211981 -0.0025 0.5
0.066675 0.0211981 0.0025 0.5
0.0700088 0.000555 -0.0025 0.5
0.0700088 0.000555 0.0025 0.5
0.0667198 0.021645 1.48957e-20 0.5
0.0702866 0.0002775 0.0025 0.5
0.0702866 0.0002775 -0.0025 0.5
0.0667613 0.0221138 -0.00211152 0.5
0.0667613 0.0221138 0.00211152 0.5
0.0667613 0.0221138 0.0025 0.5
0.0667613 0.0221138 -0.0025 0.5
0.0667901 0.022315 -0.00198196 0.5
0.0667901 0.022315 0.00198196 0.5
0.0668262 0.0222 -0.0025 0.5
0.0668262 0.0222 0.0025 0.5
0.0667901 0.022315 0.0025 0.5
0.0667901 0.022315 -0.0025 0.5
0.0705644 0.0002775 2.66209e-19 0.5
0.0668332 0.022755 6.54948e-19 0.5
0.0668671 0.0231181 -0.00163569 0.5
0.0668671 0.0231181 0.00163569 0.5
0.0668671 0.0231181 0.0025 0.5
0.0668671 0.0231181 -0.0025 0.5
0.0708422 0.0002775 0.0025 0.5
0.0708422 0.0002775 -0.0025 0.5
0.0669715 0.02331 -0.0025 0.5
0.0669715 0.02331 0.0025 0.5
0.066938 0.0235727 -0.00131684 0.5
0.066938 0.0235727 0.00131684 0.5
0.066938 0.0235727 0.0025 0.5
0.066938 0.0235727 -0.0025 0.5
0.0669845 0.0240236 -6.86958e-19 0.5
0.07112 0.000555 -0.0025 0.5
0.07112 0.000555 0.0025 0.5
0.0669925 0.0241029 0.0025 0.5
0.0669925 0.0241029 -0.0025 0.5
0.0713978 0.0002775 0.0025 0.5
0.0713978 0.0002775 -0.0025 0.5
0.0671043 0.02442 0.0025 0.5
0.0671043 0.02442 -0.0025 0.5
0.06713 0.0248745 -0.0025 0.5
0.06713 0.0248745 0.0025 0.5
0.067148 0.0250114 -2.97085e-20 0.5
0.0716756 0.0002775 9.36031e-20 0.5
0.0671505 0.025055 -0.0025 0.5
0.0671505 0.025055 0.0025 0.5
0.0672282 0.02553 0.0025 0.5
0.0672282 0.02553 -0.0025 0.5
0.0719534 0.0002775 0.0025 0.5
0.0719534 0.0002775 -0.0025 0.5
0.0673344 0.0259814 -0.0025 0.5
0.0673344 0.0259814 0.0025 0.5
0.067344 0.0260915 -3.81897e-20 0.5
0.0722313 0.000555 -0.0025 0.5
0.0722313 0.000555 0.0025 0.5
0.067354 0.0262083 0.0025 0.5
0.067354 0.0262083 -0.0025 0.5
0.0673435 0.02664 0.0025 0.5
0.0673435 0.02664 -0.0025 0.5
0.0725091 0.0002775 0.0025 0.5
0.0725091 0.0002775 -0.0025 0.5
0.0674776 0.0270344 -1.89252e-20 0.5
0.0674718 0.0269541 -0.0025 0.5
0.0674718 0.0269541 0.0025 0.5
0.0727869 0.0002775 1.145e-19 0.5
0.0675087 0.0274728 0.00125135 0.5
0.0675087 0.0274728 -0.00125135 0.5
0.0675087 0.0274728 0.0025 0.5
0.0675087 0.0274728 -0.0025 0.5
0.0674494 0.02775 0.0025 0.5
0.0674494 0.02775 -0.0025 0.5
0.0730647 0.0002775 0.0025 0.5
0.0730647 0.0002775 -0.0025 0.5
0.0675726 0.0279634 0.00153888 0.5
0.0675726 0.0279634 -0.00153888 0.5
0.0675726 0.0279634 0.0025 0.5
0.0675726 0.0279634 -0.0025 0.5
0.0675935 0.028305 2.11625e-19 0.5
0.0733425 0.000555 -0.0025 0.5
0.0733425 0.000555 0.0025 0.5
0.0676142 0.0286881 -0.00172587 0.5
0.0676142 0.0286881 0.00172587 0.5
0.0676142 0.0286881 -0.0025 0.5
0.0676142 0.0286881 0.0025 0.5
0.0675445 0.02886 -0.0025 0.5
0.0675445 0.02886 0.0025 0.5
0.0676461 0.029 0.0018695 0.5
0.0676461 0.029 -0.0018695 0.5
0.0676461 0.029 0.0025 0.5
0.0676461 0.029 -0.0025 0.5
0.0736203 0.0002775 0.0025 0.5
0.0736203 0.0002775 -0.0025 0.5
0.0676663 0.029415 -6.38562e-21 0.5
0.0738981 0.0002775 1.12679e-19 0.5
0.0676836 0.0298675 -0.00203833 0.5
0.0676836 0.0298675 0.00203833 0.5
0.0676239 0.02997 0.0025 0.5
0.0676239 0.02997 -0.0025 0.5
0.0676836 0.0298675 0.0025 0.5
0.0676836 0.0298675 -0.0025 0.5
0.0676977 0.0300584 -0.00210164 0.5
0.0676977 0.0300584 0.00210164 0.5
0.0676977 0.0300584 0.0025 0.5
0.0676977 0.0300584 -0.0025 0.5
0.0741759 0.0002775 0.0025 0.5
0.0741759 0.0002775 -0.0025 0.5
0.0677143 0.030525 -1.11579e-19 0.5
0.0744538 0.000555 -0.0025 0.5
0.0744538 0.000555 0.0025 0.5
0.0676875 0.03108 0.0025 0.5
0.0676875 0.03108 -0.0025 0.5
0.067729 0.0310228 -0.00224231 0.5
0.067729 0.0310228 0.00224231 0.5
0.067729 0.0310228 0.0025 0.5
0.067729 0.0310228 -0.0025 0.5
0.0677345 0.0311317 0.00226693 0.5
0.0677345 0.0311317 -0.00226693 0.5
0.0677345 0.0311317 0.0025 0.5
0.0677345 0.0311317 -0.0025 0.5
0.0677487 0.031635 -2.54548e-21 0.5
0.0747316 0.0002775 0.0025 0.5
0.0747316 0.0002775 -0.0025 0.5
0.0677863 0.0316876 -0.0025 0.5
0.0677863 0.0316876 0.0025 0.5
0.0750094 0.0002775 1.14375e-19 0.5
0.0678247 0.0321516 -0.00232721 0.5
0.0678247 0.0321516 0.00232721 0.5
0.0678247 0.0321516 0.0025 0.5
0.0678247 0.0321516 -0.0025 0.5
0.0678724 0.03219 0.0025 0.5
0.0678724 0.03219 -0.0025 0.5
0.0678571 0.0322608 -0.00218119 0.5
0.0678571 0.0322608 0.00218119 0.5
0.0678571 0.0322608 0.0025 0.5
0.0678571 0.0322608 -0.0025 0.5
0.0752872 0.0002775 0.0025 0.5
0.0752872 0.0002775 -0.0025 0.5
0.0679498 0.032745 1.63188e-19 0.5
0.075565 0.000555 -0.0025 0.5
0.075565 0.000555 0.0025 0.5
0.0679787 0.0331077 -0.00163398 0.5
0.0679787 0.0331077 0.00163398 0.5
0.0679787 0.0331077 0.0025 0.5
0.0679787 0.0331077 -0.0025 0.5
0.068091 0.0333 0.0025 0.5
0.068091 0.0333 -0.0025 0.5
0.0680424 0.0335559 -0.00134749 0.5
0.0680424 0.0335559 0.00134749 0.5
0.0758428 0.0002775 0.0025 0.5
0.0758428 0.0002775 -0.0025 0.5
0.0680424 0.0335559 0.0025 0.5
0.0680424 0.0335559 -0.0025 0.5
0.0680677 0.0340381 -1.60461e-20 0.5
0.0761206 0.0002775 1.14623e-19 0.5
0.0680669 0.0341296 0.0025 0.5
0.0680669 0.0341296 -0.0025 0.5
0.0681441 0.03441 0.0025 0.5
0.0681441 0.03441 -0.0025 0.5
0.0680465 0.03467 -0.00132888 0.5
0.0680465 0.03467 0.00132888 0.5
0.0680465 0.03467 -0.0025 0.5
0.0680465 0.03467 0.0025 0.5
0.0763984 0.0002775 0.0025 0.5
0.0763984 0.0002775 -0.0025 0.5
0.0680583 0.0351491 0 0.5
0.0680654 0.0352412 0.0025 0.5
0.0680654 0.0352412 -0.0025 0.5
0.0766763 0.000555 -0.0025 0.5
0.0766763 0.000555 0.0025 0.5
0.0681915 0.03552 0.0025 0.5
0.0681915 0.03552 -0.0025 0.5
0.0769541 0.0002775 0.0025 0.5
0.0769541 0.0002775 -0.0025 0.5
0.0681639 0.0358972 0.0025 0.5
0.0681639 0.0358972 -0.0025 0.5
0.0681777 0.0360665 3.30246e-20 0.5
0.0772319 0.0002775 1.08196e-19 0.5
0.0681896 0.0362271 0.0025 0.5
0.0681896 0.0362271 -0.0025 0.5
0.0682899 0.03663 0.0025 0.5
0.0682899 0.03663 -0.0025 0.5
0.0775097 0.0002775 0.0025 0.5
0.0775097 0.0002775 -0.0025 0.5
0.0683255 0.0371964 2.87252e-19 0.5
0.0683229 0.037166 0.0025 0.5
0.0683229 0.037166 -0.0025 0.5
0.0777875 0.000555 -0.0025 0.5
0.0777875 0.000555 0.0025 0.5
0.0683253 0.0372015 0.0025 0.5
0.0683253 0.0372015 -0.0025 0.5
0.0780653 0.0002775 0.0025 0.5
0.0780653 0.0002775 -0.0025 0.5
0.0683665 0.03774 -0.0025 0.5
0.0683665 0.03774 0.0025 0.5
0.0783431 0.0002775 8.26565e-20 0.5
0.0684418 0.0381951 0.0025 0.5
0.0684418 0.0381951 -0.0025 0.5
0.0684472 0.0382985 2.28293e-18 0.5
0.0684523 0.0384053 0.0025 0.5
0.0684523 0.0384053 -0.0025 0.5
0.0786209 0.0002775 0.0025 0.5
0.0786209 0.0002775 -0.0025 0.5
0.0684278 0.03885 0.0025 0.5
0.0684278 0.03885 -0.0025 0.5
0.0788988 0.000555 -0.0025 0.5
0.0788988 0.000555 0.0025 0.5
0.068523 0.0392241 0.0025 0.5
0.068523 0.0392241 -0.0025 0.5
0.0685302 0.0394097 -2.02891e-18 0.5
0.0685371 0.0396 -0.0025 0.5
0.0685371 0.0396 0.0025 0.5
0.0791766 0.0002775 0.0025 0.5
0.0791766 0.0002775 -0.0025 0.5
0.0684779 0.03996 0.0025 0.5
0.0684779 0.03996 -0.0025 0.5
0.0794544 0.0002775 9.54222e-20 0.5
0.068581 0.0402761 0.0025 0.5
0.068581 0.0402761 -0.0025 0.5
0.0685881 0.0405195 7.25495e-19 0.5
0.0797322 0.0002775 0.0025 0.5
0.0797322 0.0002775 -0.0025 0.5
0.0685946 0.0407675 0.0025 0.5
0.0685946 0.0407675 -0.0025 0.5
0.0685175 0.04107 -0.0025 0.5
0.0685175 0.04107 0.0025 0.5
0.08001 0.000555 -0.0025 0.5
0.08001 0.000555 0.0025 0.5
0.0686217 0.0413455 -0.0012592 0.5
0.0686217 0.0413455 0.0012592 0.5
0.0686217 0.0413455 -0.0025 0.5
0.0686217 0.0413455 0.0025 0.5
0.0686281 0.041625 -1.15366e-18 0.5
0.0802878 0.0002775 0.0025 0.5
0.0802878 0.0002775 -0.0025 0.5
0.0686328 0.0419156 -0.00130893 0.5
0.0686328 0.0419156 0.00130893 0.5
0.0686328 0.0419156 0.0025 0.5
0.0686328 0.0419156 -0.0025 0.5
0.0685466 0.04218 0.0025 0.5
0.0685466 0.04218 -0.0025 0.5
0.0805656 0.0002775 1.15842e-19 0.5
0.0686489 0.0424283 0.00138155 0.5
0.0686489 0.0424283 -0.00138155 0.5
0.0686489 0.0424283 0.0025 0.5
0.0686489 0.0424283 -0.0025 0.5
0.0686537 0.042735 2.26051e-19 0.5
0.0808434 0.0002775 0.0025 0.5
0.0808434 0.0002775 -0.0025 0.5
0.0686565 0.0430493 -0.00141567 0.5
0.0686565 0.0430493 0.00141567 0.5
0.0686565 0.0430493 0.0025 0.5
0.0686565 0.0430493 -0.0025 0.5
0.0685655 0.04329 0.0025 0.5
0.0685655 0.04329 -0.0025 0.5
0.0811213 0.000555 -0.0025 0.5
0.0811213 0.000555 0.0025 0.5
0.068665 0.0435223 0.00145366 0.5
0.068665 0.0435223 -0.00145366 0.5
0.068665 0.0435223 -0.0025 0.5
0.068665 0.0435223 0.0025 0.5
0.0813991 0.0002775 0.0025 0.5
0.0813991 0.0002775 -0.0025 0.5
0.0686678 0.043845 -8.23145e-19 0.5
0.0686694 0.0441722 -0.00147366 0.5
0.0686694 0.0441722 0.00147366 0.5
0.0816769 0.0002775 9.5745e-20 0.5
0.0686694 0.0441722 0.0025 0.5
0.0686694 0.0441722 -0.0025 0.5
0.0685763 0.0444 0.0025 0.5
0.0685763 0.0444 -0.0025 0.5
0.0686738 0.0446235 0.00149331 0.5
0.0686738 0.0446235 -0.00149331 0.5
0.0686738 0.0446235 0.0025 0.5
0.0686738 0.0446235 -0.0025 0.5
0.0819547 0.0002775 0.0025 0.5
0.0819547 0.0002775 -0.0025 0.5
0.0686754 0.044955 3.79991e-18 0.5
0.0822325 0.000555 -0.0025 0.5
0.0822325 0.000555 0.0025 0.5
0.0686755 0.0452882 -0.00150102 0.5
0.0686755 0.0452882 0.00150102 0.5
0.0686755 0.0452882 0.0025 0.5
0.0686755 0.0452882 -0.0025 0.5
0.0685804 0.04551 -0.0025 0.5
0.0685804 0.04551 0.0025 0.5
0.0686758 0.0457315 0.00150242 0.5
0.0686758 0.0457315 -0.00150242 0.5
0.0686758 0.0457315 0.0025 0.5
0.0686758 0.0457315 -0.0025 0.5
0.0825103 0.0002775 0.0025 0.5
0.0825103 0.0002775 -0.0025 0.5
0.0686759 0.046065 -1.58908e-18 0.5
0.0827881 0.0002775 8.32524e-20 0.5
0.0686739 0.0463966 0.00149374 0.5
0.0686739 0.0463966 -0.00149374 0.5
0.0686739 0.0463966 0.0025 0.5
0.0686739 0.0463966 -0.0025 0.5
0.0685758 0.04662 0.0025 0.5
0.0685758 0.04662 -0.0025 0.5
0.0830659 0.0002775 0.0025 0.5
0.0830659 0.0002775 -0.0025 0.5
0.0686682 0.046849 0.00146844 0.5
0.0686682 0.046849 -0.00146844 0.5
0.0686682 0.046849 0.0025 0.5
0.0686682 0.046849 -0.0025 0.5
0.0686662 0.047175 9.72886e-19 0.5
0.0833437 0.000555 -0.0025 0.5
0.0833437 0.000555 0.0025 0.5
0.0686624 0.0474952 0.00144216 0.5
0.0686624 0.0474952 -0.00144216 0.5
0.0686624 0.0474952 0.0025 0.5
0.0686624 0.0474952 -0.0025 0.5
0.0685616 0.04773 0.0025 0.5
0.0685616 0.04773 -0.0025 0.5
0.0836216 0.0002775 0.0025 0.5
0.0836216 0.0002775 -0.0025 0.5
0.0686508 0.0479764 0.00139014 0.5
0.0686508 0.0479764 -0.00139014 0.5
0.0686508 0.0479764 0.0025 0.5
0.0686508 0.0479764 -0.0025 0.5
0.0838994 0.0002775 3.228e-22 0.5
0.0686471 0.048285 -2.04509e-18 0.5
0.0686418 0.0485846 0.0013496 0.5
0.0686418 0.0485846 -0.0013496 0.5
0.0686418 0.0485846 0.0025 0.5
0.0686418 0.0485846 -0.0025 0.5
0.0685388 0.04884 0.0025 0.5
0.0685388 0.04884 -0.0025 0.5
0.0841772 0.0002775 0.0025 0.5
0.0841772 0.0002775 -0.0025 0.5
0.0686229 0.0491143 0.00126446 0.5
0.0686229 0.0491143 -0.00126446 0.5
0.0686229 0.0491143 0.0025 0.5
0.0686229 0.0491143 -0.0025 0.5
0.084455 0.000555 -0.0025 0.5
0.084455 0.000555 0.0025 0.5
0.0686135 0.0495745 1.66787e-18 0.5
0.0686114 0.0496642 0.0025 0.5
0.0686114 0.0496642 -0.0025 0.5
0.0847328 0.0002775 0.0025 0.5
0.0847328 0.0002775 -0.0025 0.5
0.0685079 0.04995 0.0025 0.5
0.0685079 0.04995 -0.0025 0.5
0.0850106 0.0002775 0 0.5
0.0685823 0.0502648 0.0025 0.5
0.0685823 0.0502648 -0.0025 0.5
0.068576 0.0505007 -1.82009e-18 0.5
0.0852884 0.0002775 0.0025 0.5
0.0852884 0.0002775 -0.0025 0.5
0.0685695 0.0507323 0.0025 0.5
0.0685695 0.0507323 -0.0025 0.5
0.0684692 0.05106 -0.0025 0.5
0.0684692 0.05106 0.0025 0.5
0.0855663 0.000555 -0.0025 0.5
0.0855663 0.000555 0.0025 0.5
0.0685258 0.0514313 -0.0025 0.5
0.0685258 0.0514313 0.0025 0.5
0.0685197 0.0516109 4.35639e-18 0.5
0.0858441 0.0002775 0.0025 0.5
0.0858441 0.0002775 -0.0025 0.5
0.0685135 0.0517864 -0.0025 0.5
0.0685135 0.0517864 0.0025 0.5
0.0684232 0.05217 -0.0025 0.5
0.0684232 0.05217 0.0025 0.5
0.0861219 0.0002775 0 0.5
0.0684492 0.0526178 0.0025 0.5
0.0684492 0.0526178 -0.0025 0.5
0.0684449 0.0527221 -4.50106e-18 0.5
0.0863997 0.0002775 0.0025 0.5
0.0863997 0.0002775 -0.0025 0.5
0.0684406 0.0528236 0.0025 0.5
0.0684406 0.0528236 -0.0025 0.5
0.0866775 0.000555 -0.0025 0.5
0.0866775 0.000555 0.0025 0.5
0.0683719 0.05328 0.0025 0.5
0.0683719 0.05328 -0.0025 0.5
0.0869553 0.0002775 0.0025 0.5
0.0869553 0.0002775 -0.0025 0.5
0.0683478 0.0538398 -2.65031e-18 0.5
0.0683486 0.0538283 0.0025 0.5
0.0683486 0.0538283 -0.0025 0.5
0.068348 0.0538411 0.0025 0.5
0.068348 0.0538411 -0.0025 0.5
0.0872331 0.0002775 0 0.5
0.0683166 0.05439 0.0025 0.5
0.0683166 0.05439 -0.0025 0.5
0.0875109 0.0002775 0.0025 0.5
0.0875109 0.0002775 -0.0025 0.5
0.0682482 0.0548514 0.0025 0.5
0.0682482 0.0548514 -0.0025 0.5
0.0682435 0.0549482 2.39874e-18 0.5
0.0682386 0.0550482 -0.0025 0.5
0.0682386 0.0550482 0.0025 0.5
0.0877888 0.000555 -0.0025 0.5
0.0877888 0.000555 0.0025 0.5
0.0682574 0.0555 0.0025 0.5
0.0682574 0.0555 -0.0025 0.5
0.0880666 0.0002775 -0.00125 0.5
0.0880666 0.0002775 0.00125 0.5
0.0880666 0.0002775 0.0025 0.5
0.0880666 0.0002775 -0.0025 0.5
0.0681595 0.0558728 0.0025 0.5
0.0681595 0.0558728 -0.0025 0.5
0.0681509 0.0560608 -1.10844e-18 0.5
0.0883444 0.0002775 0 0.5
0.0883444 0.00111 0.0025 0.5
0.0883444 0.00111 -0.0025 0.5
0.0681422 0.0562545 0.0025 0.5
0.0681422 0.0562545 -0.0025 0.5
0.0883444 0.00222 0.0025 0.5
0.0883444 0.00222 -0.0025 0.5
0.0883444 0.00333 0.0025 0.5
0.0883444 0.00333 -0.0025 0.5
0.0883444 0.00444 0.0025 0.5
0.0883444 0.00444 -0.0025 0.5
0.0883444 0.00555 0.0025 0.5
0.0883444 0.00555 -0.0025 0.5
0.0886222 0.000555 0 0.5
0.0883444 0.00666 0.0025 0.5
0.0883444 0.00666 -0.0025 0.5
0.0886222 0.0002775 -0.00125 0.5
0.0886222 0.0002775 0.00125 0.5
0.0886222 0.0008325 0.00125 0.5
0.0886222 0.0008325 -0.00125 0.5
0.0886222 0.001665 0 0.5
0.0886222 0.0002775 0.0025 0.5
0.0886222 0.0002775 -0.0025 0.5
0.0886222 0.0008325 0.0025 0.5
0.0886222 0.0008325 -0.0025 0.5
0.0886222 0.002775 0 0.5
0.0681967 0.05661 -0.0025 0.5
0.0681967 0.05661 0.0025 0.5
0.0886222 0.0013875 0.0025 0.5
0.0886222 0.0013875 -0.0025 0.5
0.0886222 0.0019425 0.0025 0.5
0.0886222 0.0019425 -0.0025 0.5
0.0886222 0.0024975 0.0025 0.5
0.0886222 0.0024975 -0.0025 0.5
0.0886222 0.003885 0 0.5
0.0886222 0.0030525 0.0025 0.5
0.0886222 0.0030525 -0.0025 0.5
0.0883444 0.00777 0.0025 0.5
0.0883444 0.00777 -0.0025 0.5
0.0886222 0.0036075 0.0025 0.5
0.0886222 0.0036075 -0.0025 0.5
0.0886222 0.0041625 0.0025 0.5
0.0886222 0.0041625 -0.0025 0.5
0.0886222 0.004995 -1.81603e-19 0.5
0.0680859 0.0569093 0.0025 0.5
0.0680859 0.0569093 -0.0025 0.5
0.0886222 0.0047175 0.0025 0.5
0.0886222 0.0047175 -0.0025 0.5
0.0886222 0.0052725 0.0025 0.5
0.0886222 0.0052725 -0.0025 0.5
0.0883444 0.00888 0.0025 0.5
0.0883444 0.00888 -0.0025 0.5
0.0886222 0.006105 -4.31797e-21 0.5
0.0886222 0.0058275 0.0025 0.5
0.0886222 0.0058275 -0.0025 0.5
0.0886222 0.0063825 0.0025 0.5
0.0886222 0.0063825 -0.0025 0.5
0.0680752 0.0571722 -4.73448e-19 0.5
0.0886222 0.007215 3.76366e-21 0.5
0.0886222 0.0069375 -0.0025 0.5
0.0886222 0.0069375 0.0025 0.5
0.0883444 0.00999 0.0025 0.5
0.0883444 0.00999 -0.0025 0.5
0.0886222 0.0074925 -0.0025 0.5
0.0886222 0.0074925 0.0025 0.5
0.0886222 0.008325 1.10296e-21 0.5
0.0886222 0.0080475 -0.0025 0.5
0.0886222 0.0080475 0.0025 0.5
0.0886222 0.0086025 -0.0025 0.5
0.0886222 0.0086025 0.0025 0.5
0.0883444 0.0111 0.0025 0.5
0.0883444 0.0111 -0.0025 0.5
0.0680643 0.0574422 0.0025 0.5
0.0680643 0.0574422 -0.0025 0.5
0.0886222 0.009435 1.92878e-21 0.5
0.0886222 0.0091575 0.0025 0.5
0.0886222 0.0091575 -0.0025 0.5
0.0886222 0.0097125 0.0025 0.5
0.0886222 0.0097125 -0.0025 0.5
0.0883444 0.01221 0.0025 0.5
0.0883444 0.01221 -0.0025 0.5
0.0886222 0.010545 3.88923e-21 0.5
0.0886222 0.0102675 0.0025 0.5
0.0886222 0.0102675 -0.0025 0.5
0.0886222 0.0108225 0.0025 0.5
0.0886222 0.0108225 -0.0025 0.5
0.0681379 0.05772 0.0025 0.5
0.0681379 0.05772 -0.0025 0.5
0.0883444 0.01332 0.0025 0.5
0.0883444 0.01332 -0.0025 0.5
0.0680262 0.0579596 -0.0014205 0.5
0.0680262 0.0579596 0.0014205 0.5
0.0886222 0.0113775 0.0025 0.5
0.0886222 0.0113775 -0.0025 0.5
0.0886222 0.011655 2.78619e-21 0.5
0.0680262 0.0579596 -0.0025 0.5
0.0680262 0.0579596 0.0025 0.5
0.0886222 0.0119325 0.0025 0.5
0.0886222 0.0119325 -0.0025 0.5
0.0886222 0.0124875 -0.0025 0.5
0.0886222 0.0124875 0.0025 0.5
0.0886222 0.012765 1.81655e-19 0.5
0.0883444 0.01443 0.0025 0.5
0.0883444 0.01443 -0.0025 0.5
0.0680145 0.058275 2.37852e-18 0.5
0.0886222 0.0130425 -0.0025 0.5
0.0886222 0.0130425 0.0025 0.5
0.0886222 0.0135975 0.0025 0.5
0.0886222 0.0135975 -0.0025 0.5
0.0886222 0.013875 0 0.5
0.0883444 0.01554 0.0025 0.5
0.0883444 0.01554 -0.0025 0.5
0.0886222 0.0141525 0.0025 0.5
0.0886222 0.0141525 -0.0025 0.5
0.0680023 0.0586142 -0.00152783 0.5
0.0680023 0.0586142 0.00152783 0.5
0.0680023 0.0586142 -0.0025 0.5
0.0680023 0.0586142 0.0025 0.5
0.0886222 0.0147075 -0.0025 0.5
0.0886222 0.0147075 0.0025 0.5
0.0886222 0.014985 7.52748e-21 0.5
0.0883444 0.01665 0.0025 0.5
0.0883444 0.01665 -0.0025 0.5
0.0886222 0.0152625 -0.0025 0.5
0.0886222 0.0152625 0.0025 0.5
0.0680818 0.05883 0.0025 0.5
0.0680818 0.05883 -0.0025 0.5
0.067977 0.0590205 -0.00164176 0.5
0.067977 0.0590205 0.00164176 0.5
0.0886222 0.0158175 0.0025 0.5
0.0886222 0.0158175 -0.0025 0.5
0.067977 0.0590205 0.0025 0.5
0.067977 0.0590205 -0.0025 0.5
0.0886222 0.016095 0 0.5
0.0883444 0.01776 0.0025 0.5
0.0883444 0.01776 -0.0025 0.5
0.0886222 0.0163725 0.0025 0.5
0.0886222 0.0163725 -0.0025 0.5
0.0679646 0.059385 6.05849e-19 0.5
0.0886222 0.0169275 0.0025 0.5
0.0886222 0.0169275 -0.0025 0.5
0.0886222 0.017205 0 0.5
0.0886222 0.0174825 0.0025 0.5
0.0886222 0.0174825 -0.0025 0.5
0.0883444 0.01887 0.0025 0.5
0.0883444 0.01887 -0.0025 0.5
0.0886222 0.0180375 0.0025 0.5
0.0886222 0.0180375 -0.0025 0.5
0.0886222 0.018315 -4.24739e-19 0.5
0.0679529 0.0597735 -0.00175013 0.5
0.0679529 0.0597735 0.00175013 0.5
0.0679529 0.0597735 0.0025 0.5
0.0679529 0.0597735 -0.0025 0.5
0.0886222 0.0185925 0.0025 0.5
0.0886222 0.0185925 -0.0025 0.5
0.0883444 0.01998 0.0025 0.5
0.0883444 0.01998 -0.0025 0.5
0.0886222 0.0191475 0.0025 0.5
0.0886222 0.0191475 -0.0025 0.5
0.0680299 0.05994 0.0025 0.5
0.0680299 0.05994 -0.0025 0.5
0.0679367 0.0600903 -0.00182289 0.5
0.0679367 0.0600903 0.00182289 0.5
0.0886222 0.019425 2.54579e-19 0.5
0.0679367 0.0600903 0.0025 0.5
0.0679367 0.0600903 -0.0025 0.5
0.0886222 0.0197025 0.0025 0.5
0.0886222 0.0197025 -0.0025 0.5
0.0883444 0.02109 0.0025 0.5
0.0883444 0.02109 -0.0025 0.5
0.0886222 0.0202575 0.0025 0.5
0.0886222 0.0202575 -0.0025 0.5
0.0679251 0.060495 7.41927e-19 0.5
0.0886222 0.020535 -4.2863e-21 0.5
0.0886222 0.0208125 0.0025 0.5
0.0886222 0.0208125 -0.0025 0.5
0.0883444 0.0222 0.0025 0.5
0.0883444 0.0222 -0.0025 0.5
0.0886222 0.0213675 0.0025 0.5
0.0886222 0.0213675 -0.0025 0.5
0.0886222 0.021645 -2.44648e-21 0.5
0.0679145 0.0609219 -0.00192283 0.5
0.0679145 0.0609219 0.00192283 0.5
0.0679145 0.0609219 0.0025 0.5
0.0679145 0.0609219 -0.0025 0.5
0.0886222 0.0219225 0.0025 0.5
0.0886222 0.0219225 -0.0025 0.5
0.0883444 0.02331 0.0025 0.5
0.0883444 0.02331 -0.0025 0.5
0.0679844 0.06105 -0.0025 0.5
0.0679844 0.06105 0.0025 0.5
0.0679045 0.0611681 -0.00196785 0.5
0.0679045 0.0611681 0.00196785 0.5
0.0679045 0.0611681 -0.0025 0.5
0.0679045 0.0611681 0.0025 0.5
0.0886222 0.0224775 0.0025 0.5
0.0886222 0.0224775 -0.0025 0.5
0.0886222 0.022755 -2.49561e-19 0.5
0.0886222 0.0230325 0.0025 0.5
0.0886222 0.0230325 -0.0025 0.5
0.0678941 0.061605 -4.39327e-19 0.5
0.0883444 0.02442 0.0025 0.5
0.0883444 0.02442 -0.0025 0.5
0.0886222 0.0235875 0.0025 0.5
0.0886222 0.0235875 -0.0025 0.5
0.0886222 0.023865 4.33092e-19 0.5
0.0886222 0.0241425 0.0025 0.5
0.0886222 0.0241425 -0.0025 0.5
0.0883444 0.02553 0.0025 0.5
0.0883444 0.02553 -0.0025 0.5
0.067885 0.0620613 0.00205557 0.5
0.067885 0.0620613 -0.00205557 0.5
0.067885 0.0620613 0.0025 0.5
0.067885 0.0620613 -0.0025 0.5
0.0886222 0.0246975 -0.0025 0.5
0.0886222 0.0246975 0.0025 0.5
0.0886222 0.024975 1.19177e-21 0.5
0.0679457 0.06216 0.0025 0.5
0.0679457 0.06216 -0.0025 0.5
0.067879 0.0622526 -0.00208271 0.5
0.067879 0.0622526 0.00208271 0.5
0.067879 0.0622526 0.0025 0.5
0.067879 0.0622526 -0.0025 0.5
0.0886222 0.0252525 0.0025 0.5
0.0886222 0.0252525 -0.0025 0.5
0.0883444 0.02664 0.0025 0.5
0.0883444 0.02664 -0.0025 0.5
0.0886222 0.0258075 0.0025 0.5
0.0886222 0.0258075 -0.0025 0.5
0.0886222 0.026085 9.22105e-21 0.5
0.06787 0.062715 1.28248e-19 0.5
0.0886222 0.0263625 0.0025 0.5
0.0886222 0.0263625 -0.0025 0.5
0.0883444 0.02775 0.0025 0.5
0.0883444 0.02775 -0.0025 0.5
0.0886222 0.0269175 0.0025 0.5
0.0886222 0.0269175 -0.0025 0.5
0.0886222 0.027195 1.2044e-20 0.5
0.0678619 0.0631944 -0.00215959 0.5
0.0678619 0.0631944 0.00215959 0.5
0.0678619 0.0631944 0.0025 0.5
0.0678619 0.0631944 -0.0025 0.5
0.0886222 0.0274725 0.0025 0.5
0.0886222 0.0274725 -0.0025 0.5
0.0679125 0.06327 0.0025 0.5
0.0679125 0.06327 -0.0025 0.5
0.0678581 0.0633418 -0.00217671 0.5
0.0678581 0.0633418 0.00217671 0.5
0.0678581 0.0633418 0.0025 0.5
0.0678581 0.0633418 -0.0025 0.5
0.0883444 0.02886 0.0025 0.5
0.0883444 0.02886 -0.0025 0.5
0.0886222 0.0280275 0.0025 0.5
0.0886222 0.0280275 -0.0025 0.5
0.0886222 0.028305 -8.22717e-21 0.5
0.0886222 0.0285825 0.0025 0.5
0.0886222 0.0285825 -0.0025 0.5
0.06785 0.063825 2.81325e-19 0.5
0.0886222 0.0291375 0.0025 0.5
0.0886222 0.0291375 -0.0025 0.5
0.0883444 0.02997 0.0025 0.5
0.0883444 0.02997 -0.0025 0.5
0.0886222 0.029415 -6.85063e-19 0.5
0.0886222 0.0296925 0.0025 0.5
0.0886222 0.0296925 -0.0025 0.5
0.0678396 0.0643267 -0.00226004 0.5
0.0678396 0.0643267 0.00226004 0.5
0.0678396 0.0643267 0.0025 0.5
0.0678396 0.0643267 -0.0025 0.5
0.0678364 0.0644301 -0.00227421 0.5
0.0678364 0.0644301 0.00227421 0.5
0.0678772 0.06438 0.0025 0.5
0.0678772 0.06438 -0.0025 0.5
0.0678364 0.0644301 0.0025 0.5
0.0678364 0.0644301 -0.0025 0.5
0.0886222 0.0302475 0.0025 0.5
0.0886222 0.0302475 -0.0025 0.5
0.0883444 0.03108 0.0025 0.5
0.0883444 0.03108 -0.0025 0.5
0.0886222 0.030525 6.22217e-19 0.5
0.0886222 0.0308025 0.0025 0.5
0.0886222 0.0308025 -0.0025 0.5
0.0678261 0.064935 3.12893e-19 0.5
0.0886222 0.0313575 0.0025 0.5
0.0886222 0.0313575 -0.0025 0.5
0.0883444 0.03219 0.0025 0.5
0.0883444 0.03219 -0.0025 0.5
0.0886222 0.031635 -3.88923e-21 0.5
0.0886222 0.0319125 0.0025 0.5
0.0886222 0.0319125 -0.0025 0.5
0.0678588 0.0654175 -0.0021735 0.5
0.0678588 0.0654175 0.0021735 0.5
0.0678588 0.0654175 0.0025 0.5
0.0678588 0.0654175 -0.0025 0.5
0.0679249 0.06549 0.0025 0.5
0.0679249 0.06549 -0.0025 0.5
0.0886222 0.0324675 0.0025 0.5
0.0886222 0.0324675 -0.0025 0.5
0.067885 0.0655887 -0.00205554 0.5
0.067885 0.0655887 0.00205554 0.5
0.067885 0.0655887 0.0025 0.5
0.067885 0.0655887 -0.0025 0.5
0.0883444 0.0333 0.0025 0.5
0.0883444 0.0333 -0.0025 0.5
0.0886222 0.032745 0 0.5
0.0886222 0.0330225 0.0025 0.5
0.0886222 0.0330225 -0.0025 0.5
0.0886222 0.0335775 0.0025 0.5
0.0886222 0.0335775 -0.0025 0.5
0.0883444 0.03441 0.0025 0.5
0.0883444 0.03441 -0.0025 0.5
0.0886222 0.033855 0 0.5
0.0886222 0.0341325 0.0025 0.5
0.0886222 0.0341325 -0.0025 0.5
0.0681443 0.0662423 0.0025 0.5