0 	0 	0 	0
0.000446734 	-1.52981e-05 	-0.000106716 	7.35751e-26
0.000893467 	-3.05961e-05 	-0.000213431 	1.4715e-25
0.0013402 	-4.77711e-05 	-0.000295856 	2.58131e-25
0.00178693 	-6.67315e-05 	-0.000355174 	4.04694e-25
0.00223367 	-8.52712e-05 	-0.000413052 	5.45765e-25
0.0026804 	-8.74056e-05 	-0.00041474 	4.7268e-25
0.00312714 	-8.95399e-05 	-0.000416429 	3.99594e-25
0.00357387 	-7.05989e-05 	-0.000381704 	2.48256e-25
0.0040206 	-3.35233e-05 	-0.000315648 	2.95844e-26
0.00446734 	6.72715e-06 	-0.000245751 	-1.79918e-25
0.00491407 	0.000107299 	-0.000102879 	-2.15205e-25
0.0053608 	0.000207871 	3.99939e-05 	-2.50492e-25
0.00580754 	0.000357371 	0.000228274 	-1.68125e-25
0.00625427 	0.000544925 	0.000451872 	5.75188e-27
0.00670101 	0.000740182 	0.000680892 	1.79485e-25
0.00714774 	0.00103045 	0.000976776 	3.51448e-25
0.00759447 	0.00132071 	0.00127266 	5.23411e-25
0.00804121 	0.00167057 	0.00159577 	5.34557e-25
0.00848794 	0.00206227 	0.00193799 	4.3279e-25
0.00893467 	0.00246205 	0.0022809 	3.38635e-25
0.00938141 	0.00293451 	0.00262998 	3.12992e-25
0.00982814 	0.00340697 	0.00297906 	2.87349e-25
0.0102749 	0.00390831 	0.00330668 	4.43018e-25
0.0107216 	0.00442792 	0.00362072 	7.13394e-25
0.0111683 	0.00494889 	0.0039262 	9.31221e-25
0.0116151 	0.00547929 	0.00417173 	7.812e-25
0.0120618 	0.0060097 	0.00441727 	6.3118e-25
0.0125085 	0.00652727 	0.00460678 	2.51769e-25
0.0129553 	0.00703755 	0.00476444 	-2.58081e-25
0.013402 	0.00754159 	0.00490813 	-7.26301e-25
0.0138487 	0.00801029 	0.00497266 	-9.58622e-25
0.0142955 	0.00847898 	0.00503719 	-1.19094e-24
0.0147422 	0.00891234 	0.00504366 	-1.1029e-24
0.0151889 	0.00932769 	0.00502054 	-8.51645e-25
0.0156357 	0.009733 	0.00498416 	-5.37833e-25
0.0160824 	0.010091 	0.00488524 	7.09054e-26
0.0165291 	0.0104489 	0.00478632 	6.79644e-25
0.0169759 	0.0107681 	0.00464517 	8.61776e-25
0.0174226 	0.0110697 	0.00448483 	8.49997e-25
0.0178693 	0.0113607 	0.00431507 	7.72989e-25
0.0183161 	0.0116095 	0.00410762 	4.35071e-25
0.0187628 	0.0118583 	0.00390018 	9.71517e-26
0.0192095 	0.0120726 	0.00366832 	0
0.0196563 	0.0122731 	0.00342661 	0
0.020103 	0.0124636 	0.00317961 	-8.71645e-26
0.0205497 	0.0126201 	0.00291443 	-4.74562e-25
0.0209965 	0.0127765 	0.00264926 	-8.6196e-25
0.0214432 	0.0129031 	0.00237326 	-1.39043e-24
0.0218899 	0.013019 	0.00209342 	-1.96911e-24
0.0223367 	0.0131254 	0.00181169 	-2.37332e-24
0.0227834 	0.0132035 	0.00152429 	-2.25414e-24
0.0232302 	0.0132815 	0.00123689 	-2.13496e-24
0.0236769 	0.0133319 	0.000948165 	-1.415e-24
0.0241236 	0.0133737 	0.000659028 	-5.07923e-25
0.0245704 	0.0134058 	0.000370776 	3.32826e-25
0.0250171 	0.0134121 	8.48586e-05 	9.98702e-25
0.0254638 	0.0134184 	-0.000201059 	1.66458e-24
0.0259106 	0.0133966 	-0.000480854 	1.70276e-24
0.0263573 	0.0133673 	-0.000758997 	1.57155e-24
0.026804 	0.013327 	-0.00103345 	1.41709e-24
0.0272508 	0.0132614 	-0.00129931 	1.20835e-24
0.0276975 	0.0131957 	-0.00156517 	9.99613e-25
0.0281442 	0.0130997 	-0.00181726 	1.01951e-24
0.028591 	0.0129966 	-0.00206618 	1.09216e-24
0.0290377 	0.0128811 	-0.00230799 	1.05949e-24
0.0294844 	0.0127394 	-0.00253502 	8.08072e-25
0.0299312 	0.0125978 	-0.00276205 	5.5665e-25
0.0303779 	0.0124228 	-0.0029663 	-2.49992e-26
0.0308246 	0.0122414 	-0.00316613 	-6.70722e-25
0.0312714 	0.0120457 	-0.00335441 	-1.06857e-24
0.0317181 	0.0118234 	-0.00352126 	-1.00607e-24
0.0321648 	0.0116012 	-0.00368811 	-9.43567e-25
0.0326116 	0.0113432 	-0.00382114 	-3.39222e-25
0.0330583 	0.0110795 	-0.00394878 	3.51505e-25
0.033505 	0.0108002 	-0.00405922 	8.2454e-25
0.0339518 	0.0104947 	-0.00414101 	9.34757e-25
0.0343985 	0.0101892 	-0.0042228 	1.04497e-24
0.0348452 	0.00984691 	-0.00425806 	6.9288e-25
0.035292 	0.00950002 	-0.00428741 	2.82184e-25
0.0357387 	0.00913743 	-0.0042936 	3.49116e-26
0.0361854 	0.00875131 	-0.00426502 	3.2776e-26
0.0366322 	0.0083652 	-0.00423645 	3.06404e-26
0.0370789 	0.00794832 	-0.00415266 	2.85068e-25
0.0375256 	0.0075285 	-0.00406357 	5.64098e-25
0.0379724 	0.00709882 	-0.00394983 	6.65994e-25
0.0384191 	0.00665582 	-0.00380273 	5.28236e-25
0.0388658 	0.00621282 	-0.00365563 	3.90479e-25
0.0393126 	0.00576328 	-0.00346274 	7.98523e-26
0.0397593 	0.0053133 	-0.0032668 	-2.42299e-25
0.040206 	0.0048694 	-0.00305599 	-4.25889e-25
0.0406528 	0.00443293 	-0.002827 	-4.40126e-25
0.0410995 	0.00399647 	-0.00259802 	-4.54363e-25
0.0415462 	0.00359351 	-0.00235702 	-3.31144e-25
0.041993 	0.00319187 	-0.00211555 	-2.02571e-25
0.0424397 	0.00281525 	-0.00187904 	-1.18166e-25
0.0428864 	0.0024663 	-0.00164801 	-8.25799e-26
0.0433332 	0.00211735 	-0.00141699 	-4.69934e-26
0.0437799 	0.00183184 	-0.00122041 	-3.62918e-26
0.0442266 	0.00154713 	-0.00102427 	-2.59051e-26
0.0446734 	0.0012968 	-0.000858371 	-1.65486e-26
0.0451201 	0.00108086 	-0.000722715 	-8.22228e-27
0.0455668 	0.000865736 	-0.000588047 	2.12653e-28
0.0460136 	0.000715646 	-0.000531495 	1.72249e-26
0.0464603 	0.000565556 	-0.000474943 	3.42372e-26
0.046907 	0.000443617 	-0.000453773 	6.53578e-26
0.0473538 	0.000347148 	-0.000464615 	1.09243e-25
0.0478005 	0.000251961 	-0.000475513 	1.51254e-25
0.0482472 	0.000189705 	-0.000487837 	1.4516e-25
0.048694 	0.000127448 	-0.000500161 	1.39067e-25
0.0491407 	8.14624e-05 	-0.000451014 	1.11689e-25
0.0495874 	4.87887e-05 	-0.000351574 	6.68972e-26
0.0500342 	1.76994e-05 	-0.00025217 	2.42239e-26
0.0504809 	1.03748e-05 	-0.00015333 	1.33278e-26
0.0509276 	3.05022e-06 	-5.44886e-05 	2.4317e-27
0.0513744 	3.09778e-08 	-9.60817e-06 	-1.67793e-27
0.0518211 	1.93947e-07 	-4.61161e-06 	-7.71471e-28
0.0522678 	3.46511e-07 	-5.24296e-08 	5.3719e-29
0.0527146 	3.90578e-07 	-5.44844e-08 	3.13361e-29
0.0531613 	4.34645e-07 	-5.65392e-08 	8.95316e-30
0.053608 	4.50522e-07 	-5.83929e-08 	0
0.0540548 	4.47605e-07 	-6.01125e-08 	0
0.0545015 	4.44602e-07 	-6.17841e-08 	0
0.0549482 	4.40921e-07 	-6.30761e-08 	0
0.055395 	4.3724e-07 	-6.43682e-08 	0
0.0558417 	4.33248e-07 	-6.54587e-08 	-2.19069e-29
0.0562884 	4.2907e-07 	-6.64282e-08 	-5.69578e-29
0.0567352 	4.2485e-07 	-6.73641e-08 	-9.37176e-29
0.0571819 	4.20363e-07 	-6.80892e-08 	-1.41196e-28
0.0576286 	4.15877e-07 	-6.88144e-08 	-1.88675e-28
0.0580754 	4.11272e-07 	-6.94211e-08 	-1.99121e-28
0.0585221 	4.06603e-07 	-6.99641e-08 	-1.89626e-28
0.0589688 	4.01919e-07 	-7.04857e-08 	-1.62862e-28
0.0594156 	3.97151e-07 	-7.08976e-08 	-4.70912e-29
0.0598623 	3.92383e-07 	-7.13095e-08 	6.86792e-29
0.060309 	3.87581e-07 	-7.16621e-08 	1.49384e-28
0.0607558 	3.82764e-07 	-7.19863e-08 	2.13205e-28
0.0612025 	3.77942e-07 	-7.23009e-08 	2.34655e-28
0.0616492 	3.73102e-07 	-7.25742e-08 	7.24968e-29
0.062096 	3.68263e-07 	-7.28474e-08 	-8.96614e-29
0.0625427 	3.63417e-07 	-7.31071e-08 	-2.42919e-28
0.0629894 	3.58569e-07 	-7.3361e-08 	-3.92361e-28
0.0634362 	3.53719e-07 	-7.36164e-08 	-5.16422e-28
0.0638829 	3.48864e-07 	-7.38777e-08 	-5.46425e-28
0.0643296 	3.44009e-07 	-7.41389e-08 	-5.76427e-28
0.0647764 	3.39146e-07 	-7.44222e-08 	-6.95289e-28
0.0652231 	3.34281e-07 	-7.47139e-08 	-8.47855e-28
0.0656698 	3.2941e-07 	-7.50174e-08 	-9.86715e-28
0.0661166 	3.24525e-07 	-7.53591e-08 	-1.08157e-27
0.0665633 	3.19639e-07 	-7.57008e-08 	-1.17642e-27
0.0670101 	3.1473e-07 	-7.6093e-08 	-8.81458e-28
0.0674568 	3.09812e-07 	-7.65019e-08 	-4.56554e-28
0.0679035 	3.04882e-07 	-7.69325e-08 	-3.90581e-29
0.0683503 	2.99917e-07 	-7.74239e-08 	3.57626e-28
0.068797 	2.94953e-07 	-7.79154e-08 	7.54309e-28
0.0692437 	2.89939e-07 	-7.84815e-08 	8.5839e-28
0.0696905 	2.84912e-07 	-7.90694e-08 	8.7752e-28
0.0701372 	2.79861e-07 	-7.96888e-08 	9.48869e-28
0.0705839 	2.74752e-07 	-8.03863e-08 	1.14963e-27
0.0710307 	2.69644e-07 	-8.10837e-08 	1.35038e-27
0.0714774 	2.64455e-07 	-8.18793e-08 	1.24228e-27
0.0719241 	2.59247e-07 	-8.26995e-08 	1.05696e-27
0.0723709 	2.54002e-07 	-8.35621e-08 	7.10092e-28
0.0728176 	2.48674e-07 	-8.45182e-08 	7.80576e-30
0.0732643 	2.43347e-07 	-8.54744e-08 	-6.9448e-28
0.0737111 	2.37904e-07 	-8.65546e-08 	-1.18382e-27
0.0741578 	2.32437e-07 	-8.76611e-08 	-1.62798e-27
0.0746045 	2.26915e-07 	-8.88238e-08 	-2.05267e-27
0.0750513 	2.21287e-07 	-9.00967e-08 	-2.43913e-27
0.075498 	2.15658e-07 	-9.13695e-08 	-2.82559e-27
0.0759447 	2.09875e-07 	-9.27992e-08 	-2.71459e-27
0.0763915 	2.04063e-07 	-9.42565e-08 	-2.51579e-27
0.0768382 	1.98178e-07 	-9.57885e-08 	-1.99459e-27
0.0772849 	1.92161e-07 	-9.74516e-08 	-9.06384e-28
0.0777317 	1.86145e-07 	-9.91147e-08 	1.8182e-28
0.0781784 	1.79929e-07 	-1.0098e-07 	9.97216e-28
0.0786251 	1.73685e-07 	-1.02874e-07 	1.77364e-27
0.0790719 	1.67344e-07 	-1.0487e-07 	2.31297e-27
0.0795186 	1.60851e-07 	-1.07025e-07 	2.47756e-27
0.0799653 	1.54357e-07 	-1.09181e-07 	2.64214e-27
0.0804121 	1.47621e-07 	-1.11605e-07 	2.43032e-27
0.0808588 	1.40857e-07 	-1.14059e-07 	2.17668e-27
0.0813055 	1.33975e-07 	-1.16654e-07 	1.68575e-27
0.0817523 	1.26924e-07 	-1.19451e-07 	8.56858e-28
0.082199 	1.19874e-07 	-1.22248e-07 	2.79659e-29
0.0826457 	1.12547e-07 	-1.25411e-07 	-6.95144e-28
0.0830925 	1.05198e-07 	-1.28605e-07 	-1.40968e-27
0.0835392 	9.77177e-08 	-1.31999e-07 	-1.82658e-27
0.0839859 	9.00686e-08 	-1.35652e-07 	-1.86083e-27
0.0844327 	8.24195e-08 	-1.39305e-07 	-1.89508e-27
0.0848794 	7.44982e-08 	-1.43464e-07 	-1.19763e-27
0.0853261 	6.65625e-08 	-1.4765e-07 	-4.61671e-28
0.0857729 	5.85105e-08 	-1.52118e-07 	-5.504e-29
0.0862196 	5.03232e-08 	-1.56915e-07 	-3.11411e-29
0.0866663 	4.21359e-08 	-1.61711e-07 	-7.24226e-30
0.0871131 	3.37633e-08 	-1.67174e-07 	-8.89821e-28
0.0875598 	2.53859e-08 	-1.72653e-07 	-1.79564e-27
0.0880065 	1.69588e-08 	-1.41074e-07 	-1.81699e-27
0.0884533 	8.47941e-09 	-7.0537e-08 	-9.08493e-28
0.0889 	2.52468e-22 	-4.82771e-21 	-7.40183e-41
