0 	0 	0 	0
0.000446734 	0.000115409 	0.00280221 	3.31301e-26
0.000893467 	0.000230395 	0.00558502 	6.60705e-26
0.0013402 	0.000306665 	0.00768936 	7.34312e-26
0.00178693 	0.000346908 	0.00915982 	5.70647e-26
0.00223367 	0.000383703 	0.0106017 	4.04417e-26
0.0026804 	0.000358252 	0.0113079 	2.38678e-26
0.00312714 	0.000332802 	0.012014 	7.29399e-27
0.00357387 	0.00029855 	0.0125611 	7.8628e-27
0.0040206 	0.000258607 	0.0129768 	2.31277e-26
0.00446734 	0.000218106 	0.0133845 	3.89041e-26
0.00491407 	0.000179979 	0.0136407 	6.51025e-26
0.0053608 	0.000141852 	0.013897 	9.1301e-26
0.00580754 	0.000105589 	0.01407 	9.98166e-26
0.00625427 	7.16425e-05 	0.0141782 	9.53628e-26
0.00670101 	3.75899e-05 	0.0142761 	8.90247e-26
0.00714774 	7.35599e-06 	0.0142494 	6.28262e-26
0.00759447 	-2.28779e-05 	0.0142228 	3.66278e-26
0.00804121 	-5.12269e-05 	0.0141315 	2.02988e-26
0.00848794 	-7.7765e-05 	0.0139952 	9.4877e-27
0.00893467 	-0.000104106 	0.0138505 	0
0.00938141 	-0.000126716 	0.0136316 	0
0.00982814 	-0.000149327 	0.0134127 	0
0.0102749 	-0.000169548 	0.013157 	0
0.0107216 	-0.000188068 	0.0128783 	0
0.0111683 	-0.000206128 	0.0125943 	0
0.0116151 	-0.000220583 	0.0122741 	0
0.0120618 	-0.000235038 	0.0119538 	0
0.0125085 	-0.000247026 	0.0116165 	0
0.0129553 	-0.000257627 	0.0112696 	0
0.013402 	-0.000267641 	0.0109204 	0
0.0138487 	-0.000274716 	0.0105592 	0
0.0142955 	-0.000281791 	0.0101979 	0
0.0147422 	-0.000286684 	0.00983391 	0
0.0151889 	-0.000290612 	0.00946858 	0
0.0156357 	-0.000293932 	0.00910396 	0
0.0160824 	-0.00029511 	0.00874288 	0
0.0165291 	-0.000296288 	0.0083818 	0
0.0169759 	-0.000295696 	0.00802811 	0
0.0174226 	-0.000294519 	0.0076778 	0
0.0178693 	-0.000292781 	0.00733063 	0
0.0183161 	-0.000289633 	0.006996 	0
0.0187628 	-0.000286484 	0.00666137 	0
0.0192095 	-0.000282015 	0.00634042 	0
0.0196563 	-0.000277261 	0.00602498 	0
0.020103 	-0.000272039 	0.00571439 	0
0.0205497 	-0.000266017 	0.00542043 	0
0.0209965 	-0.000259996 	0.00512647 	0
0.0214432 	-0.000253084 	0.00484931 	0
0.0218899 	-0.000246102 	0.0045781 	0
0.0223367 	-0.000238768 	0.00431271 	0
0.0227834 	-0.000231098 	0.00406466 	0
0.0232302 	-0.000223428 	0.00381661 	0
0.0236769 	-0.000215237 	0.00358599 	0
0.0241236 	-0.000207111 	0.00336078 	0
0.0245704 	-0.00019875 	0.00314161 	0
0.0250171 	-0.000190362 	0.0029383 	0
0.0254638 	-0.000181975 	0.002735 	0
0.0259106 	-0.000173354 	0.00254785 	0
0.0263573 	-0.000164862 	0.00236503 	0
0.026804 	-0.000156237 	0.00218784 	0
0.0272508 	-0.000147759 	0.0020237 	0
0.0276975 	-0.00013928 	0.00185955 	0
0.0281442 	-0.000130758 	0.00170887 	0
0.028591 	-0.000122375 	0.00156127 	0
0.0290377 	-0.000113936 	0.0014183 	0
0.0294844 	-0.000105699 	0.00128487 	0
0.0299312 	-9.74616e-05 	0.00115143 	0
0.0303779 	-8.92825e-05 	0.00102775 	0
0.0308246 	-8.12151e-05 	0.000905924 	0
0.0312714 	-7.31433e-05 	0.000787248 	0
0.0317181 	-6.52479e-05 	0.000674339 	0
0.0321648 	-5.73524e-05 	0.000561429 	0
0.0326116 	-4.95448e-05 	0.000453833 	0
0.0330583 	-4.18023e-05 	0.00034705 	0
0.033505 	-3.40805e-05 	0.000241528 	0
0.0339518 	-2.64556e-05 	0.000138026 	0
0.0343985 	-1.88307e-05 	3.4524e-05 	0
0.0348452 	-1.12697e-05 	-6.85919e-05 	0
0.035292 	-3.71947e-06 	-0.000171693 	0
0.0357387 	3.79851e-06 	-0.000275758 	0
0.0361854 	1.13145e-05 	-0.000381346 	0
0.0366322 	1.88304e-05 	-0.000486933 	0
0.0370789 	2.63074e-05 	-0.00059737 	0
0.0375256 	3.38238e-05 	-0.000708307 	0
0.0379724 	4.12894e-05 	-0.000822682 	-1.71074e-26
0.0384191 	4.88264e-05 	-0.000941784 	-5.96006e-26
0.0388658 	5.63633e-05 	-0.00106089 	-1.02094e-25
0.0393126 	6.38365e-05 	-0.00119018 	-1.42545e-25
0.0397593 	7.13898e-05 	-0.00132018 	-1.84889e-25
0.040206 	7.88408e-05 	-0.00145623 	-1.80678e-25
0.0406528 	8.63839e-05 	-0.00159975 	-1.18585e-25
0.0410995 	9.39271e-05 	-0.00174326 	-5.6492e-26
0.0415462 	0.000101293 	-0.0019021 	6.02851e-27
0.041993 	0.000108772 	-0.00206157 	6.77988e-26
0.0424397 	0.000116048 	-0.00222965 	8.99423e-26
0.0428864 	0.000123376 	-0.00240728 	7.03423e-26
0.0433332 	0.00013067 	-0.00258504 	5.02965e-26
0.0437799 	0.000137617 	-0.00278236 	2.87051e-26
0.0442266 	0.000144672 	-0.00298008 	9.27812e-27
0.0446734 	0.000151353 	-0.00318859 	-8.9834e-27
0.0451201 	0.000157975 	-0.00340792 	-2.77933e-26
0.0455668 	0.000164457 	-0.00362768 	-4.8362e-26
0.0460136 	0.000170412 	-0.00386954 	-6.77188e-26
0.0464603 	0.000176402 	-0.00411154 	-8.63031e-26
0.046907 	0.000181761 	-0.00436572 	-8.52201e-26
0.0473538 	0.000186882 	-0.00463088 	-6.64102e-26
0.0478005 	0.00019178 	-0.00489693 	-4.51151e-26
0.0482472 	0.000195756 	-0.00518501 	-2.65308e-26
0.048694 	0.000199731 	-0.00547309 	-7.94646e-27
0.0491407 	0.000202727 	-0.00577323 	0
0.0495874 	0.000205248 	-0.00608316 	0
0.0500342 	0.000207481 	-0.00639439 	1.42251e-27
0.0504809 	0.00020821 	-0.00672408 	3.69052e-26
0.0509276 	0.000208939 	-0.00705378 	7.2388e-26
0.0513744 	0.000208268 	-0.00739307 	1.12461e-25
0.0518211 	0.000206852 	-0.0077393 	1.47616e-25
0.0522678 	0.000205066 	-0.00808668 	1.7654e-25
0.0527146 	0.000201151 	-0.00844482 	1.41057e-25
0.0531613 	0.000197236 	-0.00880296 	1.05574e-25
0.053608 	0.00019149 	-0.0091647 	6.55682e-26
0.0540548 	0.00018474 	-0.0095286 	3.04127e-26
0.0545015 	0.000177537 	-0.00989242 	0
0.0549482 	0.000167659 	-0.0102541 	0
0.055395 	0.000157781 	-0.0106158 	0
0.0558417 	0.000145747 	-0.0109702 	0
0.0562884 	0.000132523 	-0.0113198 	0
0.0567352 	0.000118806 	-0.0116663 	0
0.0571819 	0.000102139 	-0.0119919 	0
0.0576286 	8.54721e-05 	-0.0123174 	0
0.0580754 	6.66698e-05 	-0.0126182 	0
0.0585221 	4.66646e-05 	-0.0129052 	0
0.0589688 	2.62817e-05 	-0.0131835 	0
0.0594156 	3.34968e-06 	-0.0134147 	0
0.0598623 	-1.95824e-05 	-0.0136458 	0
0.060309 	-4.37556e-05 	-0.0138249 	0
0.0607558 	-6.87813e-05 	-0.0139785 	0
0.0612025 	-9.37624e-05 	-0.0141131 	0
0.0616492 	-0.000119993 	-0.0141635 	0
0.062096 	-0.000146223 	-0.0142138 	0
0.0625427 	-0.000171838 	-0.0141743 	0
0.0629894 	-0.000197705 	-0.0140959 	0
0.0634362 	-0.000223009 	-0.0139871 	0
0.0638829 	-0.000248746 	-0.0137651 	0
0.0643296 	-0.000274483 	-0.0135432 	0
0.0647764 	-0.000297803 	-0.0132181 	0
0.0652231 	-0.00032094 	-0.012854 	0
0.0656698 	-0.000340756 	-0.012443 	0
0.0661166 	-0.000352369 	-0.0118764 	0
0.0665633 	-0.000363982 	-0.0113098 	0
0.0670101 	-0.000320834 	-0.0103425 	0
0.0674568 	-0.000258995 	-0.00923508 	0
0.0679035 	-0.000190177 	-0.00787737 	0
0.0683503 	-0.000116065 	-0.00580822 	0
0.068797 	-4.19534e-05 	-0.00373907 	0
0.0692437 	-1.79134e-05 	-0.00221709 	0
0.0696905 	-7.31433e-06 	-0.000905273 	0
0.0701372 	2.76889e-12 	-2.84612e-11 	0
0.0705839 	1.49737e-12 	-1.53937e-11 	0
0.0710307 	2.25848e-13 	-2.32631e-12 	0
0.0714774 	2.54559e-17 	-3.78006e-15 	0
0.0719241 	1.0159e-17 	-1.50989e-15 	0
0.0723709 	-1.52617e-20 	-1.8083e-20 	0
0.0728176 	-1.64234e-20 	-1.91589e-20 	0
0.0732643 	-1.75852e-20 	-2.02347e-20 	0
0.0737111 	-1.68378e-20 	-2.14364e-20 	0
0.0741578 	-1.57544e-20 	-2.26542e-20 	0
0.0746045 	-1.4733e-20 	-2.38867e-20 	-1.08721e-42
0.0750513 	-1.3831e-20 	-2.51347e-20 	-4.5377e-42
0.075498 	-1.2929e-20 	-2.63827e-20 	-7.98818e-42
0.0759447 	-1.21231e-20 	-2.75955e-20 	-1.1815e-41
0.0763915 	-1.1333e-20 	-2.8799e-20 	-1.51596e-41
0.0768382 	-1.05798e-20 	-2.99838e-20 	-1.60243e-41
0.0772849 	-9.88832e-21 	-3.11298e-20 	-1.25739e-41
0.0777317 	-9.19682e-21 	-3.22758e-20 	-9.12338e-42
0.0781784 	-8.5873e-21 	-3.33871e-20 	-5.31821e-42
0.0786251 	-7.98845e-21 	-3.44912e-20 	-1.97361e-42
0.0790719 	-7.4223e-21 	-3.55891e-20 	0
0.0795186 	-6.90645e-21 	-3.6673e-20 	0
0.0799653 	-6.39061e-21 	-3.77569e-20 	0
0.0804121 	-5.93825e-21 	-3.8841e-20 	0
0.0808588 	-5.49277e-21 	-3.99236e-20 	0
0.0813055 	-5.07072e-21 	-4.10126e-20 	-2.02029e-42
0.0817523 	-4.68243e-21 	-4.2108e-20 	-7.19932e-42
0.082199 	-4.29414e-21 	-4.32035e-20 	-1.23783e-41
0.0826457 	-3.94703e-21 	-4.43208e-20 	-1.7435e-41
0.0830925 	-3.60369e-21 	-4.54389e-20 	-2.22551e-41
0.0835392 	-3.27478e-21 	-4.65704e-20 	-2.08014e-41
0.0839859 	-2.96568e-21 	-4.77178e-20 	-1.10977e-41
0.0844327 	-2.65658e-21 	-4.88651e-20 	-1.394e-42
0.0848794 	-2.37059e-21 	-5.00448e-20 	8.1176e-42
0.0853261 	-2.08653e-21 	-5.12256e-20 	1.72365e-41
0.0857729 	-1.80963e-21 	-5.24236e-20 	1.99237e-41
0.0862196 	-1.54267e-21 	-5.36409e-20 	1.53991e-41
0.0866663 	-1.2757e-21 	-5.48581e-20 	1.08744e-41
0.0871131 	-1.01783e-21 	-5.61127e-20 	6.40567e-42
0.0875598 	-7.60986e-22 	-5.7368e-20 	2.10682e-42
0.0880065 	-5.05433e-22 	-4.71929e-20 	0
0.0884533 	-2.52929e-22 	-2.38693e-20 	0
0.0889 	0 	0 	0
