0 	0 	0 	0
0.000446734 	0.000714169 	0.00368029 	0
0.000893467 	0.00163732 	0.00761584 	2.05582e-26
0.0013402 	0.00270034 	0.0113058 	1.1896e-26
0.00178693 	0.00349585 	0.0139287 	1.36446e-25
0.00223367 	0.00429855 	0.0158869 	3.71191e-25
0.0026804 	0.00485508 	0.0171359 	5.05999e-25
0.00312714 	0.00530496 	0.0177441 	4.61562e-25
0.00357387 	0.00569478 	0.0181382 	4.43367e-25
0.0040206 	0.00595319 	0.0181005 	-6.2283e-26
0.00446734 	0.00623548 	0.0179763 	-4.74823e-25
0.00491407 	0.00640139 	0.017541 	-7.1501e-25
0.0053608 	0.00659831 	0.0170303 	-1.1107e-24
0.00580754 	0.00668922 	0.016283 	-9.3911e-25
0.00625427 	0.00679898 	0.0154535 	-3.09191e-25
0.00670101 	0.00683147 	0.0144767 	2.21532e-26
0.00714774 	0.0068434 	0.0133868 	3.13976e-25
0.00759447 	0.00683555 	0.0122451 	5.54614e-25
0.00804121 	0.00677613 	0.0110001 	1.91172e-25
0.00848794 	0.0067327 	0.00974233 	5.99489e-26
0.00893467 	0.00662826 	0.00840332 	1.60996e-25
0.00938141 	0.00654517 	0.00706208 	5.92338e-25
0.00982814 	0.00641173 	0.00566999 	7.11018e-25
0.0102749 	0.0062886 	0.0042765 	1.24432e-24
0.0107216 	0.00613846 	0.00285923 	1.32505e-24
0.0111683 	0.00597837 	0.00144042 	7.99741e-25
0.0116151 	0.00582054 	1.96986e-05 	7.10066e-25
0.0120618 	0.00563529 	-0.0013976 	1.47957e-25
0.0125085 	0.00546652 	-0.00280845 	5.00279e-26
0.0129553 	0.00525983 	-0.00420159 	-1.46255e-25
0.013402 	0.00507083 	-0.00558363 	0
0.0138487 	0.00485008 	-0.00693148 	-7.85433e-26
0.0142955 	0.00463128 	-0.00825763 	0
0.0147422 	0.00440119 	-0.00953382 	-8.86295e-27
0.0151889 	0.00414632 	-0.0107532 	-2.78056e-26
0.0156357 	0.00390738 	-0.0119248 	0
0.0160824 	0.00362578 	-0.0129938 	0
0.0165291 	0.00337411 	-0.0140117 	0
0.0169759 	0.00307602 	-0.0148715 	0
0.0174226 	0.00280542 	-0.0156729 	3.56351e-26
0.0178693 	0.00250398 	-0.0162568 	1.80617e-25
0.0183161 	0.00219319 	-0.016749 	4.82194e-25
0.0187628 	0.001904 	-0.0169856 	5.61963e-25
0.0192095 	0.00156211 	-0.0170312 	5.2447e-25
0.0196563 	0.00126774 	-0.0169042 	4.37031e-25
0.020103 	0.000884263 	-0.0165016 	2.30662e-25
0.0205497 	0.000596213 	-0.016016 	3.84395e-26
0.0209965 	0.000310759 	-0.0152638 	4.20377e-26
0.0214432 	9.51137e-05 	-0.0143895 	0
0.0218899 	-0.000123547 	-0.0129589 	0
0.0223367 	-0.000398904 	-0.0112589 	0
0.0227834 	-0.000322197 	-0.00779923 	0
0.0232302 	-0.000136471 	-0.00311589 	0
0.0236769 	-1.31111e-05 	-0.000425516 	0
0.0241236 	-7.43418e-07 	-0.000101673 	0
0.0245704 	-5.47731e-08 	-1.69372e-05 	0
0.0250171 	-3.47806e-07 	-8.80432e-07 	0
0.0254638 	-3.99041e-07 	-8.02108e-07 	0
0.0259106 	-4.08308e-07 	-7.24205e-07 	0
0.0263573 	-3.78796e-07 	-6.72339e-07 	0
0.026804 	-3.42132e-07 	-6.26876e-07 	0
0.0272508 	-3.18602e-07 	-5.85922e-07 	0
0.0276975 	-2.91276e-07 	-5.54206e-07 	0
0.0281442 	-2.71794e-07 	-5.21467e-07 	-6.65922e-29
0.028591 	-2.53604e-07 	-4.96017e-07 	0
0.0290377 	-2.37362e-07 	-4.69735e-07 	-2.1702e-28
0.0294844 	-2.24859e-07 	-4.48565e-07 	0
0.0299312 	-2.12161e-07 	-4.27409e-07 	-8.91974e-29
0.0303779 	-2.02786e-07 	-4.08964e-07 	0
0.0308246 	-1.92849e-07 	-3.91715e-07 	-3.73648e-29
0.0312714 	-1.85405e-07 	-3.75439e-07 	-6.0773e-30
0.0317181 	-1.77435e-07 	-3.61066e-07 	-2.63732e-30
0.0321648 	-1.71216e-07 	-3.46818e-07 	-4.08047e-29
0.0326116 	-1.65076e-07 	-3.34455e-07 	0
0.0330583 	-1.59578e-07 	-3.22052e-07 	6.33126e-29
0.033505 	-1.54734e-07 	-3.11358e-07 	0
0.0339518 	-1.49898e-07 	-3.00644e-07 	6.60587e-29
0.0343985 	-1.45909e-07 	-2.91177e-07 	0
0.0348452 	-1.41675e-07 	-2.82001e-07 	0
0.035292 	-1.38262e-07 	-2.73429e-07 	0
0.0357387 	-1.34502e-07 	-2.65491e-07 	0
0.0361854 	-1.31436e-07 	-2.57762e-07 	0
0.0366322 	-1.2825e-07 	-2.50762e-07 	0
0.0370789 	-1.25394e-07 	-2.43804e-07 	0
0.0375256 	-1.22677e-07 	-2.37583e-07 	0
0.0379724 	-1.20003e-07 	-2.31343e-07 	0
0.0384191 	-1.17634e-07 	-2.25739e-07 	0
0.0388658 	-1.15162e-07 	-2.20217e-07 	0
0.0393126 	-1.13033e-07 	-2.15041e-07 	0
0.0397593 	-1.10734e-07 	-2.10119e-07 	-8.63034e-30
0.040206 	-1.08758e-07 	-2.05346e-07 	-1.47006e-29
0.0406528 	-1.06683e-07 	-2.00905e-07 	0
0.0410995 	-1.048e-07 	-1.96507e-07 	-6.50979e-29
0.0415462 	-1.0294e-07 	-1.92468e-07 	0
0.041993 	-1.01122e-07 	-1.88415e-07 	-2.15819e-30
0.0424397 	-9.94356e-08 	-1.84719e-07 	0
0.0428864 	-9.77044e-08 	-1.81043e-07 	5.48874e-29
0.0433332 	-9.61368e-08 	-1.77575e-07 	-6.05065e-30
0.0437799 	-9.44837e-08 	-1.74222e-07 	-5.80402e-29
0.0442266 	-9.29989e-08 	-1.7097e-07 	-5.8118e-29
0.0446734 	-9.14449e-08 	-1.67887e-07 	-1.10478e-28
0.0451201 	-9.00111e-08 	-1.64838e-07 	-1.62095e-28
0.0455668 	-8.85711e-08 	-1.61984e-07 	-7.66047e-29
0.0460136 	-8.7167e-08 	-1.59125e-07 	-9.37477e-29
0.0464603 	-8.58227e-08 	-1.56472e-07 	-3.36123e-29
0.046907 	-8.44609e-08 	-1.53824e-07 	0
0.0473538 	-8.31862e-08 	-1.51311e-07 	0
0.0478005 	-8.18656e-08 	-1.48854e-07 	0
0.0482472 	-8.06424e-08 	-1.46468e-07 	0
0.048694 	-7.93706e-08 	-1.44176e-07 	0
0.0491407 	-7.81807e-08 	-1.41911e-07 	0
0.0495874 	-7.69772e-08 	-1.3976e-07 	0
0.0500342 	-7.58042e-08 	-1.3761e-07 	0
0.0504809 	-7.46602e-08 	-1.35585e-07 	0
0.0509276 	-7.3511e-08 	-1.33561e-07 	0
0.0513744 	-7.24135e-08 	-1.31631e-07 	0
0.0518211 	-7.12901e-08 	-1.29729e-07 	0
0.0522678 	-7.02291e-08 	-1.27879e-07 	0
0.0527146 	-6.91333e-08 	-1.26087e-07 	0
0.0531613 	-6.80967e-08 	-1.24315e-07 	0
0.053608 	-6.70465e-08 	-1.22616e-07 	0
0.0540548 	-6.60225e-08 	-1.2092e-07 	0
0.0545015 	-6.5014e-08 	-1.19306e-07 	0
0.0549482 	-6.40058e-08 	-1.17691e-07 	0
0.055395 	-6.3032e-08 	-1.16145e-07 	0
0.0558417 	-6.2043e-08 	-1.14615e-07 	0
0.0562884 	-6.10978e-08 	-1.13123e-07 	0
0.0567352 	-6.01277e-08 	-1.1167e-07 	0
0.0571819 	-5.92014e-08 	-1.10234e-07 	0
0.0576286 	-5.82639e-08 	-1.08847e-07 	0
0.0580754 	-5.73495e-08 	-1.07465e-07 	0
0.0585221 	-5.64441e-08 	-1.06139e-07 	0
0.0589688 	-5.55418e-08 	-1.04812e-07 	0
0.0594156 	-5.46646e-08 	-1.0354e-07 	0
0.0598623 	-5.37781e-08 	-1.02275e-07 	0
0.060309 	-5.2924e-08 	-1.01043e-07 	0
0.0607558 	-5.20532e-08 	-9.98368e-08 	0
0.0612025 	-5.12159e-08 	-9.8645e-08 	0
0.0616492 	-5.0369e-08 	-9.749e-08 	0
0.062096 	-4.95434e-08 	-9.63389e-08 	0
0.0625427 	-4.87229e-08 	-9.52308e-08 	0
0.0629894 	-4.7907e-08 	-9.41209e-08 	0
0.0634362 	-4.71108e-08 	-9.30561e-08 	0
0.0638829 	-4.63087e-08 	-9.19951e-08 	0
0.0643296 	-4.55319e-08 	-9.09619e-08 	0
0.0647764 	-4.47434e-08 	-8.99472e-08 	0
0.0652231 	-4.39821e-08 	-8.8946e-08 	0
0.0656698 	-4.32119e-08 	-8.79734e-08 	0
0.0661166 	-4.24619e-08 	-8.70046e-08 	0
0.0665633 	-4.17141e-08 	-8.60701e-08 	0
0.0670101 	-4.09723e-08 	-8.5134e-08 	0
0.0674568 	-4.02459e-08 	-8.4236e-08 	0
0.0679035 	-3.95158e-08 	-8.33396e-08 	0
0.0683503 	-3.88064e-08 	-8.24687e-08 	0
0.068797 	-3.80882e-08 	-8.1611e-08 	0
0.0692437 	-3.7393e-08 	-8.07666e-08 	0
0.0696905 	-3.6689e-08 	-7.99451e-08 	0
0.0701372 	-3.60045e-08 	-7.91277e-08 	0
0.0705839 	-3.53199e-08 	-7.83387e-08 	0
0.0710307 	-3.46426e-08 	-7.75492e-08 	0
0.0714774 	-3.39764e-08 	-7.67916e-08 	0
0.0719241 	-3.33087e-08 	-7.60347e-08 	0
0.0723709 	-3.26579e-08 	-7.53021e-08 	0
0.0728176 	-3.20004e-08 	-7.45789e-08 	0
0.0732643 	-3.13627e-08 	-7.38691e-08 	0
0.0737111 	-3.07159e-08 	-7.31782e-08 	0
0.0741578 	-3.00881e-08 	-7.24918e-08 	0
0.0746045 	-2.94579e-08 	-7.18296e-08 	0
0.0750513 	-2.88363e-08 	-7.11678e-08 	0
0.075498 	-2.82221e-08 	-7.05336e-08 	0
0.0759447 	-2.76079e-08 	-6.98994e-08 	0
0.0763915 	-2.70076e-08 	-6.9289e-08 	0
0.0768382 	-2.64019e-08 	-6.86849e-08 	0
0.0772849 	-2.58134e-08 	-6.80947e-08 	0
0.0777317 	-2.5216e-08 	-6.75199e-08 	0
0.0781784 	-2.4636e-08 	-6.6951e-08 	0
0.0786251 	-2.40521e-08 	-6.64025e-08 	0
0.0790719 	-2.34776e-08 	-6.58555e-08 	0
0.0795186 	-2.29074e-08 	-6.53327e-08 	0
0.0799653 	-2.23384e-08 	-6.48094e-08 	0
0.0804121 	-2.17805e-08 	-6.43098e-08 	0
0.0808588 	-2.12182e-08 	-6.3814e-08 	0
0.0813055 	-2.06706e-08 	-6.33331e-08 	0
0.0817523 	-2.01146e-08 	-6.28643e-08 	0
0.082199 	-1.95743e-08 	-6.24027e-08 	0
0.0826457 	-1.90287e-08 	-6.19588e-08 	0
0.0830925 	-1.84932e-08 	-6.15172e-08 	-1.04944e-29
0.0835392 	-1.7959e-08 	-6.10973e-08 	0
0.0839859 	-1.74271e-08 	-6.06766e-08 	-2.91164e-29
0.0844327 	-1.69035e-08 	-6.02795e-08 	0
0.0848794 	-1.63766e-08 	-5.98844e-08 	-1.15539e-31
0.0853261 	-1.58616e-08 	-5.9505e-08 	0
0.0857729 	-1.53392e-08 	-5.9135e-08 	6.46196e-30
0.0862196 	-1.48305e-08 	-5.87737e-08 	7.23677e-30
0.0866663 	-1.43152e-08 	-5.84275e-08 	0
0.0871131 	-1.38105e-08 	-5.80848e-08 	9.03768e-30
0.0875598 	-1.33045e-08 	-5.77615e-08 	0
0.0880065 	-1.28019e-08 	-5.74376e-08 	0
0.0884533 	-1.23046e-08 	-5.71369e-08 	0
0.0889 	-1.1805e-08 	-5.68368e-08 	-9.39775e-30
