0 	506.15 	-0.582467
0.000446734 	506.143 	-0.582467
0.000893467 	506.136 	-0.582467
0.0013402 	506.129 	-0.582467
0.00178693 	506.123 	-0.582467
0.00223367 	506.116 	-0.582467
0.0026804 	506.109 	-0.582467
0.00312714 	506.102 	-0.582467
0.00357387 	506.096 	-0.582467
0.0040206 	506.089 	-0.582467
0.00446734 	506.082 	-0.582467
0.00491407 	506.076 	-0.582467
0.0053608 	506.07 	-0.582467
0.00580754 	506.063 	-0.582467
0.00625427 	506.057 	-0.582467
0.00670101 	506.051 	-0.582467
0.00714774 	506.045 	-0.582467
0.00759447 	506.039 	-0.582467
0.00804121 	506.033 	-0.582467
0.00848794 	506.027 	-0.582466
0.00893467 	506.021 	-0.582466
0.00938141 	506.016 	-0.582466
0.00982814 	506.01 	-0.582466
0.0102749 	506.005 	-0.582466
0.0107216 	505.999 	-0.582466
0.0111683 	505.994 	-0.582466
0.0116151 	505.989 	-0.582467
0.0120618 	505.983 	-0.582467
0.0125085 	505.978 	-0.582467
0.0129553 	505.973 	-0.582468
0.013402 	505.968 	-0.582468
0.0138487 	505.964 	-0.582469
0.0142955 	505.959 	-0.582469
0.0147422 	505.954 	-0.58247
0.0151889 	505.95 	-0.582471
0.0156357 	505.945 	-0.582472
0.0160824 	505.941 	-0.582473
0.0165291 	505.937 	-0.582474
0.0169759 	505.933 	-0.582476
0.0174226 	505.929 	-0.582477
0.0178693 	505.925 	-0.582478
0.0183161 	505.921 	-0.58248
0.0187628 	505.917 	-0.582482
0.0192095 	505.913 	-0.582484
0.0196563 	505.91 	-0.582485
0.020103 	505.906 	-0.582487
0.0205497 	505.903 	-0.582489
0.0209965 	505.9 	-0.582491
0.0214432 	505.897 	-0.582493
0.0218899 	505.894 	-0.582495
0.0223367 	505.891 	-0.582497
0.0227834 	505.888 	-0.582499
0.0232302 	505.885 	-0.582501
0.0236769 	505.883 	-0.582503
0.0241236 	505.88 	-0.582505
0.0245704 	505.878 	-0.582507
0.0250171 	505.875 	-0.582509
0.0254638 	505.873 	-0.582511
0.0259106 	505.871 	-0.582513
0.0263573 	505.869 	-0.582515
0.026804 	505.867 	-0.582516
0.0272508 	505.865 	-0.582518
0.0276975 	505.863 	-0.58252
0.0281442 	505.861 	-0.582521
0.028591 	505.859 	-0.582523
0.0290377 	505.858 	-0.582524
0.0294844 	505.856 	-0.582525
0.0299312 	505.854 	-0.582527
0.0303779 	505.853 	-0.582528
0.0308246 	505.851 	-0.582529
0.0312714 	505.85 	-0.58253
0.0317181 	505.849 	-0.582531
0.0321648 	505.847 	-0.582531
0.0326116 	505.846 	-0.582532
0.0330583 	505.845 	-0.582533
0.033505 	505.844 	-0.582533
0.0339518 	505.842 	-0.582534
0.0343985 	505.841 	-0.582534
0.0348452 	505.84 	-0.582534
0.035292 	505.839 	-0.582535
0.0357387 	505.838 	-0.582535
0.0361854 	505.837 	-0.582535
0.0366322 	505.836 	-0.582535
0.0370789 	505.835 	-0.582534
0.0375256 	505.833 	-0.582534
0.0379724 	505.832 	-0.582534
0.0384191 	505.831 	-0.582533
0.0388658 	505.83 	-0.582533
0.0393126 	505.829 	-0.582532
0.0397593 	505.827 	-0.582532
0.040206 	505.826 	-0.582531
0.0406528 	505.825 	-0.58253
0.0410995 	505.823 	-0.58253
0.0415462 	505.821 	-0.582529
0.041993 	505.82 	-0.582528
0.0424397 	505.818 	-0.582527
0.0428864 	505.816 	-0.582526
0.0433332 	505.814 	-0.582525
0.0437799 	505.811 	-0.582524
0.0442266 	505.809 	-0.582523
0.0446734 	505.806 	-0.582522
0.0451201 	505.803 	-0.582521
0.0455668 	505.8 	-0.58252
0.0460136 	505.797 	-0.582518
0.0464603 	505.793 	-0.582517
0.046907 	505.789 	-0.582516
0.0473538 	505.785 	-0.582515
0.0478005 	505.781 	-0.582514
0.0482472 	505.775 	-0.582513
0.048694 	505.77 	-0.582512
0.0491407 	505.764 	-0.582511
0.0495874 	505.758 	-0.58251
0.0500342 	505.752 	-0.582509
0.0504809 	505.744 	-0.582508
0.0509276 	505.737 	-0.582507
0.0513744 	505.728 	-0.582506
0.0518211 	505.72 	-0.582505
0.0522678 	505.711 	-0.582504
0.0527146 	505.701 	-0.582504
0.0531613 	505.691 	-0.582503
0.053608 	505.68 	-0.582502
0.0540548 	505.668 	-0.582502
0.0545015 	505.656 	-0.582501
0.0549482 	505.643 	-0.582501
0.055395 	505.63 	-0.5825
0.0558417 	505.616 	-0.5825
0.0562884 	505.602 	-0.5825
0.0567352 	505.587 	-0.582499
0.0571819 	505.571 	-0.582499
0.0576286 	505.555 	-0.582499
0.0580754 	505.539 	-0.582499
0.0585221 	505.521 	-0.582498
0.0589688 	505.504 	-0.582498
0.0594156 	505.486 	-0.582498
0.0598623 	505.467 	-0.582498
0.060309 	505.448 	-0.582497
0.0607558 	505.429 	-0.582497
0.0612025 	505.409 	-0.582497
0.0616492 	505.389 	-0.582497
0.062096 	505.368 	-0.582497
0.0625427 	505.347 	-0.582497
0.0629894 	505.326 	-0.582496
0.0634362 	505.305 	-0.582496
0.0638829 	505.283 	-0.582496
0.0643296 	505.261 	-0.582496
0.0647764 	505.238 	-0.582496
0.0652231 	505.216 	-0.582496
0.0656698 	505.193 	-0.582496
0.0661166 	505.17 	-0.582496
0.0665633 	505.147 	-0.582496
0.0670101 	505.124 	-0.582496
0.0674568 	505.1 	-0.582496
0.0679035 	505.077 	-0.582496
0.0683503 	505.053 	-0.582496
0.068797 	505.03 	-0.582496
0.0692437 	505.005 	-0.582496
0.0696905 	504.98 	-0.582496
0.0701372 	504.949 	-0.582496
0.0705839 	504.902 	-0.582496
0.0710307 	504.855 	-0.582496
0.0714774 	504.791 	-0.582497
0.0719241 	504.724 	-0.582497
0.0723709 	504.656 	-0.582499
0.0728176 	504.589 	-0.5825
0.0732643 	504.521 	-0.582502
0.0737111 	504.454 	-0.582504
0.0741578 	504.386 	-0.582506
0.0746045 	504.319 	-0.582508
0.0750513 	504.251 	-0.582509
0.075498 	504.183 	-0.582511
0.0759447 	504.116 	-0.582513
0.0763915 	504.048 	-0.582514
0.0768382 	503.981 	-0.582516
0.0772849 	503.913 	-0.582518
0.0777317 	503.845 	-0.582519
0.0781784 	503.778 	-0.582521
0.0786251 	503.71 	-0.582522
0.0790719 	503.642 	-0.582524
0.0795186 	503.575 	-0.582525
0.0799653 	503.507 	-0.582527
0.0804121 	503.439 	-0.582528
0.0808588 	503.371 	-0.582529
0.0813055 	503.304 	-0.58253
0.0817523 	503.236 	-0.582532
0.082199 	503.168 	-0.582533
0.0826457 	503.1 	-0.582534
0.0830925 	503.032 	-0.582535
0.0835392 	502.965 	-0.582536
0.0839859 	502.897 	-0.582536
0.0844327 	502.829 	-0.582537
0.0848794 	502.761 	-0.582538
0.0853261 	502.693 	-0.582539
0.0857729 	502.625 	-0.582539
0.0862196 	502.557 	-0.58254
0.0866663 	502.49 	-0.58254
0.0871131 	502.422 	-0.58254
0.0875598 	502.354 	-0.582541
0.0880065 	502.286 	-0.582541
0.0884533 	502.218 	-0.582541
0.0889 	502.15 	-0.582541
