# f_l  POINT_DATA 1249
#  x  y  z  f_l
0.0672838 0.00222 0.0025 0.5
0.0672838 0.00222 -0.0025 0.5
0.0673142 0.00111 0.0025 0.5
0.0673142 0.00111 -0.0025 0.5
0.0673797 0.00166275 1.48442e-20 0.5
0.0673025 0.00333 0.0025 0.5
0.0673025 0.00333 -0.0025 0.5
0.0673848 0.00151101 0.0025 0.5
0.0673848 0.00151101 -0.0025 0.5
0.067378 0.00181225 0.0025 0.5
0.067378 0.00181225 -0.0025 0.5
0.0673987 0.00277624 1.47236e-19 0.5
0.0674646 0.000708293 1.86137e-20 0.5
0.0673968 0.00260901 0.0025 0.5
0.0673968 0.00260901 -0.0025 0.5
0.0674005 0.00294472 0.0025 0.5
0.0674005 0.00294472 -0.0025 0.5
0.0674608 0.00078494 0.0025 0.5
0.0674608 0.00078494 -0.0025 0.5
0.0673219 0.00444 0.0025 0.5
0.0673219 0.00444 -0.0025 0.5
0.0674185 0.00388644 2.58201e-19 0.5
0.0674164 0.0036994 0.0025 0.5
0.0674164 0.0036994 -0.0025 0.5
0.0674208 0.00407492 0.0025 0.5
0.0674208 0.00407492 -0.0025 0.5
0.0673454 0.00555 0.0025 0.5
0.0673454 0.00555 -0.0025 0.5
0.0674413 0.00499693 -1.09887e-19 0.5
0.0674385 0.00478737 0.0025 0.5
0.0674385 0.00478737 -0.0025 0.5
0.0674443 0.00520843 0.0025 0.5
0.0674443 0.00520843 -0.0025 0.5
0.067468 0.00610759 -1.9094e-21 0.5
0.0673737 0.00666 0.0025 0.5
0.0673737 0.00666 -0.0025 0.5
0.0674642 0.00587166 0.0025 0.5
0.0674642 0.00587166 -0.0025 0.5
0.067472 0.00634612 0.0025 0.5
0.067472 0.00634612 -0.0025 0.5
0.0677863 0.000796945 -0.0025 0.5
0.0677863 0.000796945 0.0025 0.5
0.0674983 0.00721837 2.77771e-20 0.5
0.0674934 0.00695251 0.0025 0.5
0.0674934 0.00695251 -0.0025 0.5
0.0674068 0.00777 -0.0025 0.5
0.0674068 0.00777 0.0025 0.5
0.0675035 0.0074876 0.0025 0.5
0.0675035 0.0074876 -0.0025 0.5
0.0675253 0.00803067 0.00132582 0.5
0.0675253 0.00803067 -0.00132582 0.5
0.0675311 0.008325 2.33936e-19 0.5
0.0675253 0.00803067 0.0025 0.5
0.0675253 0.00803067 -0.0025 0.5
0.0674439 0.00888 0.0025 0.5
0.0674439 0.00888 -0.0025 0.5
0.0675379 0.00863192 -0.00138253 0.5
0.0675379 0.00863192 0.00138253 0.5
0.0680641 0.0002775 0.0025 0.5
0.0680641 0.0002775 -0.0025 0.5
0.0675379 0.00863192 0.0025 0.5
0.0675379 0.00863192 -0.0025 0.5
0.0675586 0.00910742 0.00147557 0.5
0.0675586 0.00910742 -0.00147557 0.5
0.0675586 0.00910742 0.0025 0.5
0.0675586 0.00910742 -0.0025 0.5
0.0675655 0.009435 -5.38023e-20 0.5
0.0674833 0.00999 0.0025 0.5
0.0674833 0.00999 -0.0025 0.5
0.0675733 0.0097773 -0.00154187 0.5
0.0675733 0.0097773 0.00154187 0.5
0.0675733 0.0097773 0.0025 0.5
0.0675733 0.0097773 -0.0025 0.5
0.0683419 0.0002775 1.14121e-19 0.5
0.0675914 0.0101847 0.00162318 0.5
0.0675914 0.0101847 -0.00162318 0.5
0.0675914 0.0101847 0.0025 0.5
0.0675914 0.0101847 -0.0025 0.5
0.0675992 0.010545 -1.22049e-19 0.5
0.0675269 0.0111 0.0025 0.5
0.0675269 0.0111 -0.0025 0.5
0.0676103 0.0109243 -0.00170844 0.5
0.0676103 0.0109243 0.00170844 0.5
0.0676103 0.0109243 0.0025 0.5
0.0676103 0.0109243 -0.0025 0.5
0.0676241 0.011262 -0.00177032 0.5
0.0676241 0.011262 0.00177032 0.5
0.0676241 0.011262 0.0025 0.5
0.0676241 0.011262 -0.0025 0.5
0.0676353 0.011655 4.17117e-19 0.5
0.0686197 0.0002775 0.0025 0.5
0.0686197 0.0002775 -0.0025 0.5
0.0675946 0.01221 -0.0025 0.5
0.0675946 0.01221 0.0025 0.5
0.0676598 0.0120837 -0.00193126 0.5
0.0676598 0.0120837 0.00193126 0.5
0.0676598 0.0120837 0.0025 0.5
0.0676598 0.0120837 -0.0025 0.5
0.0676681 0.012328 0.00196839 0.5
0.0676681 0.012328 -0.00196839 0.5
0.0676681 0.012328 0.0025 0.5
0.0676681 0.012328 -0.0025 0.5
0.0676943 0.012765 -2.48061e-19 0.5
0.0688975 0.000555 -0.0025 0.5
0.0688975 0.000555 0.0025 0.5
0.0676886 0.01332 0.0025 0.5
0.0676886 0.01332 -0.0025 0.5
0.0677227 0.0132565 -0.00221393 0.5
0.0677227 0.0132565 0.00221393 0.5
0.0677227 0.0132565 -0.0025 0.5
0.0677227 0.0132565 0.0025 0.5
0.0677268 0.0133794 0.00223251 0.5
0.0677268 0.0133794 -0.00223251 0.5
0.0677268 0.0133794 0.0025 0.5
0.0677268 0.0133794 -0.0025 0.5
0.0677569 0.013875 -5.93077e-19 0.5
0.0691753 0.0002775 0.0025 0.5
0.0691753 0.0002775 -0.0025 0.5
0.0677863 0.0143488 -0.0025 0.5
0.0677863 0.0143488 0.0025 0.5
0.0677909 0.0144253 -0.00247892 0.5
0.0677909 0.0144253 0.00247892 0.5
0.0677909 0.0144253 0.0025 0.5
0.0677909 0.0144253 -0.0025 0.5
0.0677919 0.0144356 -0.0024747 0.5
0.0677919 0.0144356 0.0024747 0.5
0.0677919 0.0144356 0.0025 0.5
0.0677919 0.0144356 -0.0025 0.5
0.0677945 0.01443 0.0025 0.5
0.0677945 0.01443 -0.0025 0.5
0.0694531 0.0002775 9.36031e-20 0.5
0.0678278 0.014985 6.86452e-19 0.5
0.0678607 0.0154657 -0.00216517 0.5
0.0678607 0.0154657 0.00216517 0.5
0.0678607 0.0154657 0.0025 0.5
0.0678607 0.0154657 -0.0025 0.5
0.0678776 0.0156313 -0.00208896 0.5
0.0678776 0.0156313 0.00208896 0.5
0.0678776 0.0156313 0.0025 0.5
0.0678776 0.0156313 -0.0025 0.5
0.0679068 0.01554 0.0025 0.5
0.0679068 0.01554 -0.0025 0.5
0.0697309 0.0002775 0.0025 0.5
0.0697309 0.0002775 -0.0025 0.5
0.0679114 0.016095 2.55189e-19 0.5
0.0679416 0.0164948 -0.00180091 0.5
0.0679416 0.0164948 0.00180091 0.5
0.0679416 0.0164948 0.0025 0.5
0.0679416 0.0164948 -0.0025 0.5
0.0700088 0.000555 -0.0025 0.5
0.0700088 0.000555 0.0025 0.5
0.0679824 0.0168459 -0.00161749 0.5
0.0679824 0.0168459 0.00161749 0.5
0.0680176 0.01665 0.0025 0.5
0.0680176 0.01665 -0.0025 0.5
0.0679824 0.0168459 0.0025 0.5
0.0679824 0.0168459 -0.0025 0.5
0.0680117 0.017205 1.00376e-20 0.5
0.0680374 0.0175092 -0.00137007 0.5
0.0680374 0.0175092 0.00137007 0.5
0.0680374 0.0175092 0.0025 0.5
0.0680374 0.0175092 -0.0025 0.5
0.0702866 0.0002775 0.0025 0.5
0.0702866 0.0002775 -0.0025 0.5
0.0681267 0.01776 0.0025 0.5
0.0681267 0.01776 -0.0025 0.5
0.0681142 0.0180875 0.0025 0.5
0.0681142 0.0180875 -0.0025 0.5
0.0681341 0.0183021 2.31766e-20 0.5
0.0705644 0.0002775 2.66209e-19 0.5
0.0681529 0.0185037 0.0025 0.5
0.0681529 0.0185037 -0.0025 0.5
0.0682337 0.01887 0.0025 0.5
0.0682337 0.01887 -0.0025 0.5
0.0708422 0.0002775 0.0025 0.5
0.0708422 0.0002775 -0.0025 0.5
0.0682953 0.0194483 -1.12938e-19 0.5
0.0682857 0.0193689 0.0025 0.5
0.0682857 0.0193689 -0.0025 0.5
0.0682964 0.0194704 0.0025 0.5
0.0682964 0.0194704 -0.0025 0.5
0.07112 0.000555 -0.0025 0.5
0.07112 0.000555 0.0025 0.5
0.0683379 0.01998 0.0025 0.5
0.0683379 0.01998 -0.0025 0.5
0.0713978 0.0002775 0.0025 0.5
0.0713978 0.0002775 -0.0025 0.5
0.0684559 0.0205404 -1.25466e-18 0.5
0.068448 0.020429 -0.0025 0.5
0.068448 0.020429 0.0025 0.5
0.0684643 0.0206572 -0.0025 0.5
0.0684643 0.0206572 0.0025 0.5
0.0684387 0.02109 0.0025 0.5
0.0684387 0.02109 -0.0025 0.5
0.0716756 0.0002775 9.36031e-20 0.5
0.0685669 0.0214202 -0.0025 0.5
0.0685669 0.0214202 0.0025 0.5
0.0685817 0.0216551 9.58224e-19 0.5
0.0719534 0.0002775 0.0025 0.5
0.0719534 0.0002775 -0.0025 0.5
0.0685971 0.0218999 -0.0025 0.5
0.0685971 0.0218999 0.0025 0.5
0.0685351 0.0222 0.0025 0.5
0.0685351 0.0222 -0.0025 0.5
0.0686606 0.0224367 0.00143391 0.5
0.0686606 0.0224367 -0.00143391 0.5
0.0722313 0.000555 -0.0025 0.5
0.0722313 0.000555 0.0025 0.5
0.0686606 0.0224367 0.0025 0.5
0.0686606 0.0224367 -0.0025 0.5
0.0686783 0.022755 4.33419e-19 0.5
0.068697 0.0231097 -0.00159792 0.5
0.068697 0.0231097 0.00159792 0.5
0.0686245 0.02331 0.0025 0.5
0.0686245 0.02331 -0.0025 0.5
0.068697 0.0231097 0.0025 0.5
0.068697 0.0231097 -0.0025 0.5
0.0725091 0.0002775 0.0025 0.5
0.0725091 0.0002775 -0.0025 0.5
0.0687334 0.0234739 0.0017618 0.5
0.0687334 0.0234739 -0.0017618 0.5
0.0687334 0.0234739 -0.0025 0.5
0.0687334 0.0234739 0.0025 0.5
0.0687521 0.023865 -6.65895e-19 0.5
0.0727869 0.0002775 1.145e-19 0.5
0.0687039 0.02442 0.0025 0.5
0.0687039 0.02442 -0.0025 0.5
0.06877 0.0242927 -0.0019264 0.5
0.06877 0.0242927 0.0019264 0.5
0.06877 0.0242927 0.0025 0.5
0.06877 0.0242927 -0.0025 0.5
0.068789 0.0245284 0.00201185 0.5
0.068789 0.0245284 -0.00201185 0.5
0.068789 0.0245284 0.0025 0.5
0.068789 0.0245284 -0.0025 0.5
0.0730647 0.0002775 0.0025 0.5
0.0730647 0.0002775 -0.0025 0.5
0.0688063 0.024975 6.36701e-19 0.5
0.0733425 0.000555 -0.0025 0.5
0.0733425 0.000555 0.0025 0.5
0.0688147 0.02553 0.0025 0.5
0.0688147 0.02553 -0.0025 0.5
0.0688474 0.02548 0.00227479 0.5
0.0688474 0.02548 -0.00227479 0.5
0.0688474 0.02548 0.0025 0.5
0.0688474 0.02548 -0.0025 0.5
0.0688529 0.0255746 -0.00229924 0.5
0.0688529 0.0255746 0.00229924 0.5
0.0688529 0.0255746 -0.0025 0.5
0.0688529 0.0255746 0.0025 0.5
0.0736203 0.0002775 0.0025 0.5
0.0736203 0.0002775 -0.0025 0.5
0.0688967 0.026085 6.39675e-20 0.5
0.0688975 0.0260857 -0.0025 0.5
0.0688975 0.0260857 0.0025 0.5
0.0738981 0.0002775 1.12679e-19 0.5
0.0689419 0.0265957 -0.00230025 0.5
0.0689419 0.0265957 0.00230025 0.5
0.0689419 0.0265957 0.0025 0.5
0.0689419 0.0265957 -0.0025 0.5
0.0689566 0.026699 -0.00223406 0.5
0.0689566 0.026699 0.00223406 0.5
0.0689566 0.026699 0.0025 0.5
0.0689566 0.026699 -0.0025 0.5
0.0689828 0.02664 0.0025 0.5
0.0689828 0.02664 -0.0025 0.5
0.0690051 0.027195 1.27804e-19 0.5
0.0741759 0.0002775 0.0025 0.5
0.0741759 0.0002775 -0.0025 0.5
0.0690403 0.0276073 -0.00185741 0.5
0.0690403 0.0276073 0.00185741 0.5
0.0690403 0.0276073 0.0025 0.5
0.0690403 0.0276073 -0.0025 0.5
0.0744538 0.000555 -0.0025 0.5
0.0744538 0.000555 0.0025 0.5
0.0691377 0.02775 0.0025 0.5
0.0691377 0.02775 -0.0025 0.5
0.0690884 0.0279407 -0.0016409 0.5
0.0690884 0.0279407 0.0016409 0.5
0.0690884 0.0279407 0.0025 0.5
0.0690884 0.0279407 -0.0025 0.5
0.0691231 0.028305 -8.02036e-19 0.5
0.0747316 0.0002775 0.0025 0.5
0.0747316 0.0002775 -0.0025 0.5
0.0691494 0.0286084 0.00136679 0.5
0.0691494 0.0286084 -0.00136679 0.5
0.0691494 0.0286084 0.0025 0.5
0.0691494 0.0286084 -0.0025 0.5
0.0750094 0.0002775 1.14375e-19 0.5
0.0692697 0.02886 -0.0025 0.5
0.0692697 0.02886 0.0025 0.5
0.069243 0.0292051 0.0025 0.5
0.069243 0.0292051 -0.0025 0.5
0.0692615 0.0294034 6.43766e-19 0.5
0.0752872 0.0002775 0.0025 0.5
0.0752872 0.0002775 -0.0025 0.5
0.069278 0.02959 0.0025 0.5
0.069278 0.02959 -0.0025 0.5
0.075565 0.000555 -0.0025 0.5
0.075565 0.000555 0.0025 0.5
0.0693828 0.02997 0.0025 0.5
0.0693828 0.02997 -0.0025 0.5
0.069427 0.0305387 5.1028e-20 0.5
0.0694221 0.030494 0.0025 0.5
0.0694221 0.030494 -0.0025 0.5
0.0758428 0.0002775 0.0025 0.5
0.0758428 0.0002775 -0.0025 0.5
0.0694272 0.0305509 0.0025 0.5
0.0694272 0.0305509 -0.0025 0.5
0.0761206 0.0002775 1.14623e-19 0.5
0.0694811 0.03108 0.0025 0.5
0.0694811 0.03108 -0.0025 0.5
0.0695779 0.0315104 0.0025 0.5
0.0695779 0.0315104 -0.0025 0.5
0.0763984 0.0002775 0.0025 0.5
0.0763984 0.0002775 -0.0025 0.5
0.06959 0.0316441 2.93485e-19 0.5
0.0696053 0.031787 0.0025 0.5
0.0696053 0.031787 -0.0025 0.5
0.0766763 0.000555 -0.0025 0.5
0.0766763 0.000555 0.0025 0.5
0.0696055 0.03219 0.0025 0.5
0.0696055 0.03219 -0.0025 0.5
0.0697492 0.0324492 0.00133231 0.5
0.0697492 0.0324492 -0.00133231 0.5
0.0697492 0.0324492 0.0025 0.5
0.0697492 0.0324492 -0.0025 0.5
0.0769541 0.0002775 0.0025 0.5
0.0769541 0.0002775 -0.0025 0.5
0.0697782 0.032745 3.98853e-20 0.5
0.0772319 0.0002775 1.08196e-19 0.5
0.0697962 0.0330877 -0.00154377 0.5
0.0697962 0.0330877 0.00154377 0.5
0.0697962 0.0330877 0.0025 0.5
0.0697962 0.0330877 -0.0025 0.5
0.0697241 0.0333 0.0025 0.5
0.0697241 0.0333 -0.0025 0.5
0.0698348 0.0334738 0.00171715 0.5
0.0698348 0.0334738 -0.00171715 0.5
0.0698348 0.0334738 0.0025 0.5
0.0698348 0.0334738 -0.0025 0.5
0.0775097 0.0002775 0.0025 0.5
0.0775097 0.0002775 -0.0025 0.5
0.0698529 0.033855 9.67987e-20 0.5
0.0698591 0.0342605 -0.00182665 0.5
0.0698591 0.0342605 0.00182665 0.5
0.0777875 0.000555 -0.0025 0.5
0.0777875 0.000555 0.0025 0.5
0.0697786 0.03441 0.0025 0.5
0.0697786 0.03441 -0.0025 0.5
0.0698591 0.0342605 0.0025 0.5
0.0698591 0.0342605 -0.0025 0.5
0.0698679 0.0345507 -0.00186606 0.5
0.0698679 0.0345507 0.00186606 0.5
0.0698679 0.0345507 0.0025 0.5
0.0698679 0.0345507 -0.0025 0.5
0.0780653 0.0002775 0.0025 0.5
0.0780653 0.0002775 -0.0025 0.5
0.069874 0.034965 1.34939e-19 0.5
0.0783431 0.0002775 8.26565e-20 0.5
0.0698925 0.0354038 -0.00197672 0.5
0.0698925 0.0354038 0.00197672 0.5
0.0698294 0.03552 0.0025 0.5
0.0698294 0.03552 -0.0025 0.5
0.0698925 0.0354038 0.0025 0.5
0.0698925 0.0354038 -0.0025 0.5
0.0699098 0.0356189 0.00205473 0.5
0.0699098 0.0356189 -0.00205473 0.5
0.0699098 0.0356189 0.0025 0.5
0.0699098 0.0356189 -0.0025 0.5
0.0786209 0.0002775 0.0025 0.5
0.0786209 0.0002775 -0.0025 0.5
0.0699275 0.036075 1.60361e-19 0.5
0.0788988 0.000555 -0.0025 0.5
0.0788988 0.000555 0.0025 0.5
0.0698968 0.03663 0.0025 0.5
0.0698968 0.03663 -0.0025 0.5
0.0699426 0.0365639 -0.00220216 0.5
0.0699426 0.0365639 0.00220216 0.5
0.0699426 0.0365639 0.0025 0.5
0.0699426 0.0365639 -0.0025 0.5
0.06995 0.0366887 0.00223578 0.5
0.06995 0.0366887 -0.00223578 0.5
0.06995 0.0366887 0.0025 0.5
0.06995 0.0366887 -0.0025 0.5
0.0791766 0.0002775 0.0025 0.5
0.0791766 0.0002775 -0.0025 0.5
0.0699645 0.037185 2.68216e-20 0.5
0.0794544 0.0002775 9.54222e-20 0.5
0.0699469 0.03774 0.0025 0.5
0.0699469 0.03774 -0.0025 0.5
0.0699747 0.037706 -0.00234672 0.5
0.0699747 0.037706 0.00234672 0.5
0.0699747 0.037706 0.0025 0.5
0.0699747 0.037706 -0.0025 0.5
0.0699772 0.0377715 -0.00235807 0.5
0.0699772 0.0377715 0.00235807 0.5
0.0699772 0.0377715 0.0025 0.5
0.0699772 0.0377715 -0.0025 0.5
0.0797322 0.0002775 0.0025 0.5
0.0797322 0.0002775 -0.0025 0.5
0.0699871 0.038295 2.38731e-20 0.5
0.08001 0.000555 -0.0025 0.5
0.08001 0.000555 0.0025 0.5
0.0699905 0.03885 0.0025 0.5
0.0699905 0.03885 -0.0025 0.5
0.0699992 0.0388404 -0.00245693 0.5
0.0699992 0.0388404 0.00245693 0.5
0.0699992 0.0388404 0.0025 0.5
0.0699992 0.0388404 -0.0025 0.5
0.0699996 0.0388591 0.00245885 0.5
0.0699996 0.0388591 -0.00245885 0.5
0.0699996 0.0388591 0.0025 0.5
0.0699996 0.0388591 -0.0025 0.5
0.0700088 0.0391757 -0.0025 0.5
0.0700088 0.0391757 0.0025 0.5
0.0802878 0.0002775 0.0025 0.5
0.0802878 0.0002775 -0.0025 0.5
0.0700117 0.039405 1.45028e-19 0.5
0.0805656 0.0002775 1.15842e-19 0.5
0.0700305 0.0399383 -0.00240218 0.5
0.0700305 0.0399383 0.00240218 0.5
0.0700305 0.0399383 0.0025 0.5
0.0700305 0.0399383 -0.0025 0.5
0.0700333 0.0399846 0.00238935 0.5
0.0700333 0.0399846 -0.00238935 0.5
0.0700333 0.0399846 0.0025 0.5
0.0700333 0.0399846 -0.0025 0.5
0.0700526 0.03996 -0.0025 0.5
0.0700526 0.03996 0.0025 0.5
0.0808434 0.0002775 0.0025 0.5
0.0808434 0.0002775 -0.0025 0.5
0.070053 0.040515 8.62915e-19 0.5
0.0811213 0.000555 -0.0025 0.5
0.0811213 0.000555 0.0025 0.5
0.0700644 0.0410145 -0.00224981 0.5
0.0700644 0.0410145 0.00224981 0.5
0.0700644 0.0410145 -0.0025 0.5
0.0700644 0.0410145 0.0025 0.5
0.0700692 0.0411304 -0.00222804 0.5
0.0700692 0.0411304 0.00222804 0.5
0.0700692 0.0411304 0.0025 0.5
0.0700692 0.0411304 -0.0025 0.5
0.0701133 0.04107 0.0025 0.5
0.0701133 0.04107 -0.0025 0.5
0.0813991 0.0002775 0.0025 0.5
0.0813991 0.0002775 -0.0025 0.5
0.0700808 0.041625 -3.77559e-19 0.5
0.0816769 0.0002775 9.5745e-20 0.5
0.0700874 0.0421014 -0.00214604 0.5
0.0700874 0.0421014 0.00214604 0.5
0.0700874 0.0421014 0.0025 0.5
0.0700874 0.0421014 -0.0025 0.5
0.0700917 0.0422629 0.00212666 0.5
0.0700917 0.0422629 -0.00212666 0.5
0.0700917 0.0422629 0.0025 0.5
0.0700917 0.0422629 -0.0025 0.5
0.0701497 0.04218 0.0025 0.5
0.0701497 0.04218 -0.0025 0.5
0.0819547 0.0002775 0.0025 0.5
0.0819547 0.0002775 -0.0025 0.5
0.0700984 0.042735 2.83875e-19 0.5
0.0822325 0.000555 -0.0025 0.5
0.0822325 0.000555 0.0025 0.5
0.0701019 0.0431969 -0.00208068 0.5
0.0701019 0.0431969 0.00208068 0.5
0.0701019 0.0431969 0.0025 0.5
0.0701019 0.0431969 -0.0025 0.5
0.0701048 0.0433859 -0.00206782 0.5
0.0701048 0.0433859 0.00206782 0.5
0.0701048 0.0433859 0.0025 0.5
0.0701048 0.0433859 -0.0025 0.5
0.0701704 0.04329 0.0025 0.5
0.0701704 0.04329 -0.0025 0.5
0.0825103 0.0002775 0.0025 0.5
0.0825103 0.0002775 -0.0025 0.5
0.0701084 0.043845 3.2077e-19 0.5
0.0827881 0.0002775 8.32524e-20 0.5
0.0701096 0.0442993 0.00204628 0.5
0.0701096 0.0442993 -0.00204628 0.5
0.0701096 0.0442993 0.0025 0.5
0.0701096 0.0442993 -0.0025 0.5
0.0701107 0.0445018 -0.00204135 0.5
0.0701107 0.0445018 0.00204135 0.5
0.0701107 0.0445018 0.0025 0.5
0.0701107 0.0445018 -0.0025 0.5
0.0701802 0.0444 0.0025 0.5
0.0701802 0.0444 -0.0025 0.5
0.0830659 0.0002775 0.0025 0.5
0.0830659 0.0002775 -0.0025 0.5
0.0701119 0.044955 1.1223e-18 0.5
0.0833437 0.000555 -0.0025 0.5
0.0833437 0.000555 0.0025 0.5
0.07011 0.0454089 -0.00204443 0.5
0.07011 0.0454089 0.00204443 0.5
0.07011 0.0454089 0.0025 0.5
0.07011 0.0454089 -0.0025 0.5
0.0836216 0.0002775 0.0025 0.5
0.0836216 0.0002775 -0.0025 0.5
0.0701083 0.0456095 -0.002052 0.5
0.0701083 0.0456095 0.002052 0.5
0.0701083 0.0456095 -0.0025 0.5
0.0701083 0.0456095 0.0025 0.5
0.0701788 0.04551 0.0025 0.5
0.0701788 0.04551 -0.0025 0.5
0.0701064 0.046065 -1.10471e-18 0.5
0.0838994 0.0002775 3.228e-22 0.5
0.070101 0.0465278 -0.00208487 0.5
0.070101 0.0465278 0.00208487 0.5
0.070101 0.0465278 0.0025 0.5
0.070101 0.0465278 -0.0025 0.5
0.0841772 0.0002775 0.0025 0.5
0.0841772 0.0002775 -0.0025 0.5
0.070097 0.0467081 0.00210304 0.5
0.070097 0.0467081 -0.00210304 0.5
0.070097 0.0467081 0.0025 0.5
0.070097 0.0467081 -0.0025 0.5
0.0701639 0.04662 -0.0025 0.5
0.0701639 0.04662 0.0025 0.5
0.0700916 0.047175 2.85472e-20 0.5
0.084455 0.000555 -0.0025 0.5
0.084455 0.000555 0.0025 0.5
0.0847328 0.0002775 0.0025 0.5
0.0847328 0.0002775 -0.0025 0.5
0.0700829 0.047656 -0.00216651 0.5
0.0700829 0.047656 0.00216651 0.5
0.0700829 0.047656 0.0025 0.5
0.0700829 0.047656 -0.0025 0.5
0.0700781 0.0477992 -0.00218816 0.5
0.0700781 0.0477992 0.00218816 0.5
0.0700781 0.0477992 0.0025 0.5
0.0700781 0.0477992 -0.0025 0.5
0.0701354 0.04773 0.0025 0.5
0.0701354 0.04773 -0.0025 0.5
0.0850106 0.0002775 0 0.5
0.0700695 0.048285 7.64258e-20 0.5
0.0852884 0.0002775 0.0025 0.5
0.0852884 0.0002775 -0.0025 0.5
0.0700563 0.0487925 -0.00228617 0.5
0.0700563 0.0487925 0.00228617 0.5
0.0700563 0.0487925 0.0025 0.5
0.0700563 0.0487925 -0.0025 0.5
0.0700522 0.0488834 -0.00230463 0.5
0.0700522 0.0488834 0.00230463 0.5
0.0700522 0.0488834 0.0025 0.5
0.0700522 0.0488834 -0.0025 0.5
0.0700922 0.04884 0.0025 0.5
0.0700922 0.04884 -0.0025 0.5
0.0855663 0.000555 -0.0025 0.5
0.0855663 0.000555 0.0025 0.5
0.0700394 0.049395 1.35274e-18 0.5
0.0858441 0.0002775 0.0025 0.5
0.0858441 0.0002775 -0.0025 0.5
0.0700186 0.0499401 -0.00245548 0.5
0.0700186 0.0499401 0.00245548 0.5
0.0700186 0.0499401 -0.0025 0.5
0.0700186 0.0499401 0.0025 0.5
0.0700175 0.0499587 -0.00246064 0.5
0.0700175 0.0499587 0.00246064 0.5
0.0700175 0.0499587 0.0025 0.5
0.0700175 0.0499587 -0.0025 0.5
0.0700268 0.04995 0.0025 0.5
0.0700268 0.04995 -0.0025 0.5
0.0861219 0.0002775 0 0.5
0.0700087 0.0503211 0.0025 0.5
0.0700087 0.0503211 -0.0025 0.5
0.0699977 0.050505 -1.12935e-18 0.5
0.0863997 0.0002775 0.0025 0.5
0.0863997 0.0002775 -0.0025 0.5
0.0699734 0.05106 0.0025 0.5
0.0699734 0.05106 -0.0025 0.5
0.0699909 0.0510422 -0.00241982 0.5
0.0699909 0.0510422 0.00241982 0.5
0.0699909 0.0510422 0.0025 0.5
0.0699909 0.0510422 -0.0025 0.5
0.06999 0.0510787 0.00241571 0.5
0.06999 0.0510787 -0.00241571 0.5
0.06999 0.0510787 0.0025 0.5
0.06999 0.0510787 -0.0025 0.5
0.0866775 0.000555 -0.0025 0.5
0.0866775 0.000555 0.0025 0.5
0.0699831 0.051615 3.4712e-18 0.5
0.0869553 0.0002775 0.0025 0.5
0.0869553 0.0002775 -0.0025 0.5
0.0872331 0.0002775 0 0.5
0.0699414 0.05217 -0.0025 0.5
0.0699414 0.05217 0.0025 0.5
0.0699741 0.0521354 -0.0023442 0.5
0.0699741 0.0521354 0.0023442 0.5
0.0699741 0.0521354 -0.0025 0.5
0.0699741 0.0521354 0.0025 0.5
0.0699716 0.0522071 -0.0023329 0.5
0.0699716 0.0522071 0.0023329 0.5
0.0699716 0.0522071 -0.0025 0.5
0.0699716 0.0522071 0.0025 0.5
0.0875109 0.0002775 0.0025 0.5
0.0875109 0.0002775 -0.0025 0.5
0.0699624 0.052725 -3.13894e-18 0.5
0.0877888 0.000555 -0.0025 0.5
0.0877888 0.000555 0.0025 0.5
0.0699519 0.0532232 -0.00224437 0.5
0.0699519 0.0532232 0.00224437 0.5
0.0699017 0.05328 0.0025 0.5
0.0699017 0.05328 -0.0025 0.5
0.0699519 0.0532232 -0.0025 0.5
0.0699519 0.0532232 0.0025 0.5
0.0699469 0.0533418 0.00222153 0.5
0.0699469 0.0533418 -0.00222153 0.5
0.0699469 0.0533418 0.0025 0.5
0.0699469 0.0533418 -0.0025 0.5
0.0880666 0.0002775 -0.00125 0.5
0.0880666 0.0002775 0.00125 0.5
0.0880666 0.0002775 0.0025 0.5
0.0880666 0.0002775 -0.0025 0.5
0.0699361 0.053835 5.95038e-19 0.5
0.0883444 0.0002775 0 0.5
0.0883444 0.00111 0.0025 0.5
0.0883444 0.00111 -0.0025 0.5
0.0883444 0.00222 0.0025 0.5
0.0883444 0.00222 -0.0025 0.5
0.0883444 0.00333 0.0025 0.5
0.0883444 0.00333 -0.0025 0.5
0.0883444 0.00444 0.0025 0.5
0.0883444 0.00444 -0.0025 0.5
0.0883444 0.00555 0.0025 0.5
0.0883444 0.00555 -0.0025 0.5
0.0699241 0.0543054 -0.00211903 0.5
0.0699241 0.0543054 0.00211903 0.5
0.0698552 0.05439 0.0025 0.5
0.0698552 0.05439 -0.0025 0.5
0.0699241 0.0543054 0.0025 0.5
0.0699241 0.0543054 -0.0025 0.5
0.0886222 0.000555 0 0.5
0.0883444 0.00666 0.0025 0.5
0.0883444 0.00666 -0.0025 0.5
0.0886222 0.0002775 -0.00125 0.5
0.0886222 0.0002775 0.00125 0.5
0.0886222 0.0008325 0.00125 0.5
0.0886222 0.0008325 -0.00125 0.5
0.0886222 0.001665 0 0.5
0.0886222 0.0002775 0.0025 0.5
0.0886222 0.0002775 -0.0025 0.5
0.0886222 0.0008325 0.0025 0.5
0.0886222 0.0008325 -0.0025 0.5
0.0699147 0.0544839 0.002077 0.5
0.0699147 0.0544839 -0.002077 0.5
0.0886222 0.002775 0 0.5
0.0886222 0.0013875 0.0025 0.5
0.0886222 0.0013875 -0.0025 0.5
0.0699147 0.0544839 0.0025 0.5
0.0699147 0.0544839 -0.0025 0.5
0.0886222 0.0019425 0.0025 0.5
0.0886222 0.0019425 -0.0025 0.5
0.0886222 0.0024975 0.0025 0.5
0.0886222 0.0024975 -0.0025 0.5
0.0886222 0.003885 0 0.5
0.0886222 0.0030525 0.0025 0.5
0.0886222 0.0030525 -0.0025 0.5
0.0883444 0.00777 0.0025 0.5
0.0883444 0.00777 -0.0025 0.5
0.0886222 0.0036075 0.0025 0.5
0.0886222 0.0036075 -0.0025 0.5
0.0886222 0.0041625 0.0025 0.5
0.0886222 0.0041625 -0.0025 0.5
0.0886222 0.004995 -1.81603e-19 0.5
0.0886222 0.0047175 0.0025 0.5
0.0886222 0.0047175 -0.0025 0.5
0.0886222 0.0052725 0.0025 0.5
0.0886222 0.0052725 -0.0025 0.5
0.0883444 0.00888 0.0025 0.5
0.0883444 0.00888 -0.0025 0.5
0.0886222 0.006105 -4.31797e-21 0.5
0.0886222 0.0058275 0.0025 0.5
0.0886222 0.0058275 -0.0025 0.5
0.0886222 0.0063825 0.0025 0.5
0.0886222 0.0063825 -0.0025 0.5
0.0699024 0.054945 -4.96154e-19 0.5
0.0886222 0.007215 3.76366e-21 0.5
0.0886222 0.0069375 -0.0025 0.5
0.0886222 0.0069375 0.0025 0.5
0.0883444 0.00999 0.0025 0.5
0.0883444 0.00999 -0.0025 0.5
0.0886222 0.0074925 -0.0025 0.5
0.0886222 0.0074925 0.0025 0.5
0.0886222 0.008325 1.10296e-21 0.5
0.0886222 0.0080475 -0.0025 0.5
0.0886222 0.0080475 0.0025 0.5
0.0886222 0.0086025 -0.0025 0.5
0.0886222 0.0086025 0.0025 0.5
0.0883444 0.0111 0.0025 0.5
0.0883444 0.0111 -0.0025 0.5
0.0886222 0.009435 1.92878e-21 0.5
0.0886222 0.0091575 0.0025 0.5
0.0886222 0.0091575 -0.0025 0.5
0.0886222 0.0097125 0.0025 0.5
0.0886222 0.0097125 -0.0025 0.5
0.0698899 0.0553813 -0.00196518 0.5
0.0698899 0.0553813 0.00196518 0.5
0.0698899 0.0553813 0.0025 0.5
0.0698899 0.0553813 -0.0025 0.5
0.0698035 0.0555 0.0025 0.5
0.0698035 0.0555 -0.0025 0.5
0.0883444 0.01221 0.0025 0.5
0.0883444 0.01221 -0.0025 0.5
0.0886222 0.010545 3.88923e-21 0.5
0.0886222 0.0102675 0.0025 0.5
0.0886222 0.0102675 -0.0025 0.5
0.0886222 0.0108225 0.0025 0.5
0.0886222 0.0108225 -0.0025 0.5
0.069875 0.0556336 0.00189842 0.5
0.069875 0.0556336 -0.00189842 0.5
0.069875 0.0556336 0.0025 0.5
0.069875 0.0556336 -0.0025 0.5
0.0883444 0.01332 0.0025 0.5
0.0883444 0.01332 -0.0025 0.5
0.0886222 0.0113775 0.0025 0.5
0.0886222 0.0113775 -0.0025 0.5
0.0886222 0.011655 2.78619e-21 0.5
0.0886222 0.0119325 0.0025 0.5
0.0886222 0.0119325 -0.0025 0.5
0.0886222 0.0124875 -0.0025 0.5
0.0886222 0.0124875 0.0025 0.5
0.0886222 0.012765 1.81655e-19 0.5
0.0883444 0.01443 0.0025 0.5
0.0883444 0.01443 -0.0025 0.5
0.0698623 0.056055 -3.39612e-18 0.5
0.0886222 0.0130425 -0.0025 0.5
0.0886222 0.0130425 0.0025 0.5
0.0886222 0.0135975 0.0025 0.5
0.0886222 0.0135975 -0.0025 0.5
0.0886222 0.013875 0 0.5
0.0883444 0.01554 0.0025 0.5
0.0883444 0.01554 -0.0025 0.5
0.0886222 0.0141525 0.0025 0.5
0.0886222 0.0141525 -0.0025 0.5
0.0698506 0.056452 0.00178833 0.5
0.0698506 0.056452 -0.00178833 0.5
0.0698506 0.056452 0.0025 0.5
0.0698506 0.056452 -0.0025 0.5
0.069751 0.05661 0.0025 0.5
0.069751 0.05661 -0.0025 0.5
0.0886222 0.0147075 -0.0025 0.5
0.0886222 0.0147075 0.0025 0.5
0.0886222 0.014985 7.52748e-21 0.5
0.0883444 0.01665 0.0025 0.5
0.0883444 0.01665 -0.0025 0.5
0.0886222 0.0152625 -0.0025 0.5
0.0886222 0.0152625 0.0025 0.5
0.0698302 0.0567884 0.00169641 0.5
0.0698302 0.0567884 -0.00169641 0.5
0.0698302 0.0567884 0.0025 0.5
0.0698302 0.0567884 -0.0025 0.5
0.0886222 0.0158175 0.0025 0.5
0.0886222 0.0158175 -0.0025 0.5
0.0886222 0.016095 0 0.5
0.0883444 0.01776 0.0025 0.5
0.0883444 0.01776 -0.0025 0.5
0.0886222 0.0163725 0.0025 0.5
0.0886222 0.0163725 -0.0025 0.5
0.0698184 0.057165 1.13349e-18 0.5
0.0886222 0.0169275 0.0025 0.5
0.0886222 0.0169275 -0.0025 0.5
0.0886222 0.017205 0 0.5
0.0886222 0.0174825 0.0025 0.5
0.0886222 0.0174825 -0.0025 0.5
0.0883444 0.01887 0.0025 0.5
0.0883444 0.01887 -0.0025 0.5
0.0698078 0.0575192 0.00159569 0.5
0.0698078 0.0575192 -0.00159569 0.5
0.0886222 0.0180375 0.0025 0.5
0.0886222 0.0180375 -0.0025 0.5
0.0698078 0.0575192 0.0025 0.5
0.0698078 0.0575192 -0.0025 0.5
0.0886222 0.018315 -4.24739e-19 0.5
0.0697004 0.05772 0.0025 0.5
0.0697004 0.05772 -0.0025 0.5
0.0886222 0.0185925 0.0025 0.5
0.0886222 0.0185925 -0.0025 0.5
0.0883444 0.01998 0.0025 0.5
0.0883444 0.01998 -0.0025 0.5
0.0886222 0.0191475 0.0025 0.5
0.0886222 0.0191475 -0.0025 0.5
0.0697814 0.0579471 0.00147703 0.5
0.0697814 0.0579471 -0.00147703 0.5
0.0886222 0.019425 2.54579e-19 0.5
0.0697814 0.0579471 0.0025 0.5
0.0697814 0.0579471 -0.0025 0.5
0.0886222 0.0197025 0.0025 0.5
0.0886222 0.0197025 -0.0025 0.5
0.0883444 0.02109 0.0025 0.5
0.0883444 0.02109 -0.0025 0.5
0.069771 0.058275 2.08964e-18 0.5
0.0886222 0.0202575 0.0025 0.5
0.0886222 0.0202575 -0.0025 0.5
0.0886222 0.020535 -4.2863e-21 0.5
0.0886222 0.0208125 0.0025 0.5
0.0886222 0.0208125 -0.0025 0.5
0.069762 0.0585836 -0.00138993 0.5
0.069762 0.0585836 0.00138993 0.5
0.0883444 0.0222 0.0025 0.5
0.0883444 0.0222 -0.0025 0.5
0.069762 0.0585836 0.0025 0.5
0.069762 0.0585836 -0.0025 0.5
0.0886222 0.0213675 0.0025 0.5
0.0886222 0.0213675 -0.0025 0.5
0.0696532 0.05883 -0.0025 0.5
0.0696532 0.05883 0.0025 0.5
0.0886222 0.021645 -2.44648e-21 0.5
0.0886222 0.0219225 0.0025 0.5
0.0886222 0.0219225 -0.0025 0.5
0.0883444 0.02331 0.0025 0.5
0.0883444 0.02331 -0.0025 0.5
0.0697308 0.0591076 0.0025 0.5
0.0697308 0.0591076 -0.0025 0.5
0.0886222 0.0224775 0.0025 0.5
0.0886222 0.0224775 -0.0025 0.5
0.0886222 0.022755 -2.49561e-19 0.5
0.0697228 0.0593799 1.22459e-18 0.5
0.0886222 0.0230325 0.0025 0.5
0.0886222 0.0230325 -0.0025 0.5
0.0883444 0.02442 0.0025 0.5
0.0883444 0.02442 -0.0025 0.5
0.0886222 0.0235875 0.0025 0.5
0.0886222 0.0235875 -0.0025 0.5
0.0886222 0.023865 4.33092e-19 0.5
0.0697153 0.0596469 0.0025 0.5
0.0697153 0.0596469 -0.0025 0.5
0.0886222 0.0241425 0.0025 0.5
0.0886222 0.0241425 -0.0025 0.5
0.069611 0.05994 -0.0025 0.5
0.069611 0.05994 0.0025 0.5
0.0883444 0.02553 0.0025 0.5
0.0883444 0.02553 -0.0025 0.5
0.0886222 0.0246975 -0.0025 0.5
0.0886222 0.0246975 0.0025 0.5
0.0886222 0.024975 1.19177e-21 0.5
0.0696816 0.0602668 0.0025 0.5
0.0696816 0.0602668 -0.0025 0.5
0.0886222 0.0252525 0.0025 0.5
0.0886222 0.0252525 -0.0025 0.5
0.0696757 0.0604912 3.15622e-18 0.5
0.0883444 0.02664 0.0025 0.5
0.0883444 0.02664 -0.0025 0.5
0.0886222 0.0258075 0.0025 0.5
0.0886222 0.0258075 -0.0025 0.5
0.0886222 0.026085 9.22105e-21 0.5
0.0696702 0.0607119 -0.0025 0.5
0.0696702 0.0607119 0.0025 0.5
0.0886222 0.0263625 0.0025 0.5
0.0886222 0.0263625 -0.0025 0.5
0.0695749 0.06105 0.0025 0.5
0.0695749 0.06105 -0.0025 0.5
0.0883444 0.02775 0.0025 0.5
0.0883444 0.02775 -0.0025 0.5
0.0886222 0.0269175 0.0025 0.5
0.0886222 0.0269175 -0.0025 0.5
0.0886222 0.027195 1.2044e-20 0.5
0.0886222 0.0274725 0.0025 0.5
0.0886222 0.0274725 -0.0025 0.5
0.0696371 0.0614212 -0.0025 0.5
0.0696371 0.0614212 0.0025 0.5
0.0696331 0.0616025 -2.75628e-18 0.5
0.0883444 0.02886 0.0025 0.5
0.0883444 0.02886 -0.0025 0.5
0.0886222 0.0280275 0.0025 0.5
0.0886222 0.0280275 -0.0025 0.5
0.0886222 0.028305 -8.22717e-21 0.5
0.0696295 0.0617811 0.0025 0.5
0.0696295 0.0617811 -0.0025 0.5
0.0886222 0.0285825 0.0025 0.5
0.0886222 0.0285825 -0.0025 0.5
0.0695453 0.06216 0.0025 0.5
0.0695453 0.06216 -0.0025 0.5
0.0886222 0.0291375 0.0025 0.5
0.0886222 0.0291375 -0.0025 0.5
0.0883444 0.02997 0.0025 0.5
0.0883444 0.02997 -0.0025 0.5
0.0886222 0.029415 -6.85063e-19 0.5
0.0886222 0.0296925 0.0025 0.5
0.0886222 0.0296925 -0.0025 0.5
0.0695998 0.0625685 0.0025 0.5
0.0695998 0.0625685 -0.0025 0.5
0.0886222 0.0302475 0.0025 0.5
0.0886222 0.0302475 -0.0025 0.5
0.0695972 0.0627134 -9.57099e-21 0.5
0.0883444 0.03108 0.0025 0.5
0.0883444 0.03108 -0.0025 0.5
0.0886222 0.030525 6.22217e-19 0.5
0.0695949 0.0628566 0.0025 0.5
0.0695949 0.0628566 -0.0025 0.5
0.0886222 0.0308025 0.0025 0.5
0.0886222 0.0308025 -0.0025 0.5
0.0695219 0.06327 0.0025 0.5
0.0695219 0.06327 -0.0025 0.5
0.0886222 0.0313575 0.0025 0.5
0.0886222 0.0313575 -0.0025 0.5
0.0883444 0.03219 0.0025 0.5
0.0883444 0.03219 -0.0025 0.5
0.0886222 0.031635 -3.88923e-21 0.5
0.0886222 0.0319125 0.0025 0.5
0.0886222 0.0319125 -0.0025 0.5
0.0695694 0.0637089 0.0025 0.5
0.0695694 0.0637089 -0.0025 0.5
0.0695677 0.0638238 0 0.5
0.0886222 0.0324675 0.0025 0.5
0.0886222 0.0324675 -0.0025 0.5
0.0883444 0.0333 0.0025 0.5
0.0883444 0.0333 -0.0025 0.5
0.0886222 0.032745 0 0.5
0.0695659 0.0639377 0.0025 0.5
0.0695659 0.0639377 -0.0025 0.5
0.0886222 0.0330225 0.0025 0.5
0.0886222 0.0330225 -0.0025 0.5
0.0695008 0.06438 0.0025 0.5
0.0695008 0.06438 -0.0025 0.5
0.0886222 0.0335775 0.0025 0.5
0.0886222 0.0335775 -0.0025 0.5
0.0883444 0.03441 0.0025 0.5
0.0883444 0.03441 -0.0025 0.5
0.0886222 0.033855 0 0.5
0.0886222 0.0341325 0.0025 0.5
0.0886222 0.0341325 -0.0025 0.5
0.0695377 0.0648505 0.0025 0.5
0.0695377 0.0648505 -0.0025 0.5
0.0695387 0.0649364 0 0.5
0.0886222 0.0346875 0.0025 0.5
0.0886222 0.0346875 -0.0025 0.5
0.069542 0.0650238 0.0025 0.5
0.069542 0.0650238 -0.0025 0.5
0.0883444 0.03552 0.0025 0.5
0.0883444 0.03552 -0.0025 0.5
0.0886222 0.034965 -3.39789e-22 0.5
0.0886222 0.0352425 0.0025 0.5
0.0886222 0.0352425 -0.0025 0.5
0.069528 0.06549 0.0025 0.5
0.069528 0.06549 -0.0025 0.5
0.0886222 0.0357975 0.0025 0.5
0.0886222 0.0357975 -0.0025 0.5