# f_l  POINT_DATA 1276
#  x  y  z  f_l
0.0635447 0.001665 2.14308e-20 0.5
0.0635556 0.00200588 -0.00153549 0.5
0.0635556 0.00200588 0.00153549 0.5
0.0635779 0.00134638 -0.00143522 0.5
0.0635779 0.00134638 0.00143522 0.5
0.0635556 0.00200588 0.0025 0.5
0.0635556 0.00200588 -0.0025 0.5
0.0635753 0.00245381 -0.0014468 0.5
0.0635753 0.00245381 0.0014468 0.5
0.0635779 0.00134638 -0.0025 0.5
0.0635779 0.00134638 0.0025 0.5
0.0635859 0.002775 -3.40924e-20 0.5
0.0635753 0.00245381 0.0025 0.5
0.0635753 0.00245381 -0.0025 0.5
0.0635946 0.0030769 -0.00135992 0.5
0.0635946 0.0030769 0.00135992 0.5
0.063611 0.00222 0.0025 0.5
0.063611 0.00222 -0.0025 0.5
0.0635946 0.0030769 0.0025 0.5
0.0635946 0.0030769 -0.0025 0.5
0.0636596 0.00111 0.0025 0.5
0.0636596 0.00111 -0.0025 0.5
0.063616 0.00360445 -0.00126374 0.5
0.063616 0.00360445 0.00126374 0.5
0.0636968 0.000754847 0.0025 0.5
0.0636968 0.000754847 -0.0025 0.5
0.0636304 0.00406042 4.06169e-21 0.5
0.063616 0.00360445 0.0025 0.5
0.063616 0.00360445 -0.0025 0.5
0.0636484 0.00333 0.0025 0.5
0.0636484 0.00333 -0.0025 0.5
0.0636334 0.00414813 0.0025 0.5
0.0636334 0.00414813 -0.0025 0.5
0.063823 0.000542939 9.15488e-23 0.5
0.0636727 0.00498915 -4.1402e-21 0.5
0.0638287 0.000486946 0.0025 0.5
0.0638287 0.000486946 -0.0025 0.5
0.0636857 0.00444 0.0025 0.5
0.0636857 0.00444 -0.0025 0.5
0.063664 0.00476242 0.0025 0.5
0.063664 0.00476242 -0.0025 0.5
0.0636816 0.00521003 0.0025 0.5
0.0636816 0.00521003 -0.0025 0.5
0.063965 0.000486946 0.0025 0.5
0.063965 0.000486946 -0.0025 0.5
0.0637292 0.00555 0.0025 0.5
0.0637292 0.00555 -0.0025 0.5
0.0637354 0.00609978 -1.23725e-19 0.5
0.0637277 0.005936 0.0025 0.5
0.0637277 0.005936 -0.0025 0.5
0.0637434 0.00625834 0.0025 0.5
0.0637434 0.00625834 -0.0025 0.5
0.0637802 0.00666 0.0025 0.5
0.0637802 0.00666 -0.0025 0.5
0.0638183 0.00721192 -1.05627e-19 0.5
0.0638137 0.00713188 -0.0025 0.5
0.0638137 0.00713188 0.0025 0.5
0.0638229 0.00728889 -0.0025 0.5
0.0638229 0.00728889 0.0025 0.5
0.0638377 0.00777 -0.0025 0.5
0.0638377 0.00777 0.0025 0.5
0.0639197 0.008303 -2.39764e-19 0.5
0.0644525 0.000685764 -0.0025 0.5
0.0644525 0.000685764 0.0025 0.5
0.0639204 0.00830151 0.0025 0.5
0.0639204 0.00830151 -0.0025 0.5
0.0639226 0.00835066 0.0025 0.5
0.0639226 0.00835066 -0.0025 0.5
0.0639001 0.00888 0.0025 0.5
0.0639001 0.00888 -0.0025 0.5
0.0640135 0.00943845 -4.98135e-19 0.5
0.0640085 0.0093235 0.0025 0.5
0.0640085 0.0093235 -0.0025 0.5
0.0640189 0.00955685 0.0025 0.5
0.0640189 0.00955685 -0.0025 0.5
0.0647303 0.0002775 0.0025 0.5
0.0647303 0.0002775 -0.0025 0.5
0.0639664 0.00999 0.0025 0.5
0.0639664 0.00999 -0.0025 0.5
0.064098 0.0105509 1.74621e-19 0.5
0.0640893 0.0103528 0.0025 0.5
0.0640893 0.0103528 -0.0025 0.5
0.0650081 0.0002775 0 0.5
0.0640361 0.0111 0.0025 0.5
0.0640361 0.0111 -0.0025 0.5
0.0641071 0.010755 0.0025 0.5
0.0641071 0.010755 -0.0025 0.5
0.0641666 0.0114778 -5.78345e-19 0.5
0.0641629 0.0113893 0.0025 0.5
0.0641629 0.0113893 -0.0025 0.5
0.0641869 0.0119447 -0.00130475 0.5
0.0641869 0.0119447 0.00130475 0.5
0.0641072 0.01221 0.0025 0.5
0.0641072 0.01221 -0.0025 0.5
0.0652859 0.0002775 0.0025 0.5
0.0652859 0.0002775 -0.0025 0.5
0.0641869 0.0119447 0.0025 0.5
0.0641869 0.0119447 -0.0025 0.5
0.0642281 0.0124341 0.0014905 0.5
0.0642281 0.0124341 -0.0014905 0.5
0.0642281 0.0124341 0.0025 0.5
0.0642281 0.0124341 -0.0025 0.5
0.0642415 0.012765 5.98343e-19 0.5
0.064176 0.01332 0.0025 0.5
0.064176 0.01332 -0.0025 0.5
0.0642556 0.0131233 -0.00161408 0.5
0.0642556 0.0131233 0.00161408 0.5
0.0655638 0.000555 -0.0025 0.5
0.0655638 0.000555 0.0025 0.5
0.0642556 0.0131233 0.0025 0.5
0.0642556 0.0131233 -0.0025 0.5
0.0642833 0.0134891 0.00173848 0.5
0.0642833 0.0134891 -0.00173848 0.5
0.0642833 0.0134891 0.0025 0.5
0.0642833 0.0134891 -0.0025 0.5
0.0642973 0.013875 3.42631e-20 0.5
0.0658416 0.0002775 0.0025 0.5
0.0658416 0.0002775 -0.0025 0.5
0.0642611 0.01443 0.0025 0.5
0.0642611 0.01443 -0.0025 0.5
0.0643252 0.0143028 -0.00192705 0.5
0.0643252 0.0143028 0.00192705 0.5
0.0643252 0.0143028 0.0025 0.5
0.0643252 0.0143028 -0.0025 0.5
0.0643405 0.0145419 0.00199605 0.5
0.0643405 0.0145419 -0.00199605 0.5
0.0643405 0.0145419 0.0025 0.5
0.0643405 0.0145419 -0.0025 0.5
0.0643694 0.014985 0 0.5
0.0661194 0.0002775 -1.81913e-21 0.5
0.0644002 0.01554 0.0025 0.5
0.0644002 0.01554 -0.0025 0.5
0.0644194 0.0155069 -0.00235085 0.5
0.0644194 0.0155069 0.00235085 0.5
0.0644194 0.0155069 0.0025 0.5
0.0644194 0.0155069 -0.0025 0.5
0.0644227 0.0155697 0.00236608 0.5
0.0644227 0.0155697 -0.00236608 0.5
0.0644227 0.0155697 0.0025 0.5
0.0644227 0.0155697 -0.0025 0.5
0.0644525 0.0158633 -0.0025 0.5
0.0644525 0.0158633 0.0025 0.5
0.0663972 0.0002775 0.0025 0.5
0.0663972 0.0002775 -0.0025 0.5
0.0644779 0.016095 6.82454e-20 0.5
0.0645254 0.0165772 -0.0021722 0.5
0.0645254 0.0165772 0.0021722 0.5
0.0645254 0.0165772 0.0025 0.5
0.0645254 0.0165772 -0.0025 0.5
0.0645519 0.0167493 -0.00205275 0.5
0.0645519 0.0167493 0.00205275 0.5
0.066675 0.000555 -0.0025 0.5
0.066675 0.000555 0.0025 0.5
0.0645519 0.0167493 0.0025 0.5
0.0645519 0.0167493 -0.0025 0.5
0.0645804 0.01665 0.0025 0.5
0.0645804 0.01665 -0.0025 0.5
0.0646016 0.017205 0 0.5
0.0669528 0.0002775 0.0025 0.5
0.0669528 0.0002775 -0.0025 0.5
0.0646412 0.0175715 -0.00165081 0.5
0.0646412 0.0175715 0.00165081 0.5
0.0646412 0.0175715 0.0025 0.5
0.0646412 0.0175715 -0.0025 0.5
0.0647435 0.01776 0.0025 0.5
0.0647435 0.01776 -0.0025 0.5
0.064722 0.0180292 -0.00128753 0.5
0.064722 0.0180292 0.00128753 0.5
0.0672306 0.0002775 9.10876e-20 0.5
0.064722 0.0180292 0.0025 0.5
0.064722 0.0180292 -0.0025 0.5
0.064775 0.0184643 -5.70998e-19 0.5
0.064784 0.0185389 0.0025 0.5
0.064784 0.0185389 -0.0025 0.5
0.0675084 0.0002775 0.0025 0.5
0.0675084 0.0002775 -0.0025 0.5
0.0648953 0.01887 0.0025 0.5
0.0648953 0.01887 -0.0025 0.5
0.0649698 0.0194387 5.65306e-19 0.5
0.0677863 0.000555 -0.0025 0.5
0.0677863 0.000555 0.0025 0.5
0.0649601 0.019377 0.0025 0.5
0.0649601 0.019377 -0.0025 0.5
0.0649719 0.0194612 0.0025 0.5
0.0649719 0.0194612 -0.0025 0.5
0.0650375 0.01998 0.0025 0.5
0.0650375 0.01998 -0.0025 0.5
0.0680641 0.0002775 0.0025 0.5
0.0680641 0.0002775 -0.0025 0.5
0.0651666 0.0203767 0.0025 0.5
0.0651666 0.0203767 -0.0025 0.5
0.0683419 0.0002775 1.14121e-19 0.5
0.0651824 0.0205458 -9.90135e-21 0.5
0.0651991 0.0207258 0.0025 0.5
0.0651991 0.0207258 -0.0025 0.5
0.0651693 0.02109 -0.0025 0.5
0.0651693 0.02109 0.0025 0.5
0.0686197 0.0002775 0.0025 0.5
0.0686197 0.0002775 -0.0025 0.5
0.0653049 0.0213486 0.00133528 0.5
0.0653049 0.0213486 -0.00133528 0.5
0.0653049 0.0213486 0.0025 0.5
0.0653049 0.0213486 -0.0025 0.5
0.0653281 0.021645 -2.37806e-19 0.5
0.0688975 0.000555 -0.0025 0.5
0.0688975 0.000555 0.0025 0.5
0.0653526 0.0219891 -0.00154999 0.5
0.0653526 0.0219891 0.00154999 0.5
0.0653526 0.0219891 0.0025 0.5
0.0653526 0.0219891 -0.0025 0.5
0.0652882 0.0222 -0.0025 0.5
0.0652882 0.0222 0.0025 0.5
0.0654021 0.0223614 0.00177281 0.5
0.0654021 0.0223614 -0.00177281 0.5
0.0654021 0.0223614 0.0025 0.5
0.0654021 0.0223614 -0.0025 0.5
0.0691753 0.0002775 0.0025 0.5
0.0691753 0.0002775 -0.0025 0.5
0.0654267 0.022755 -9.52686e-19 0.5
0.0694531 0.0002775 9.36031e-20 0.5
0.0653907 0.02331 0.0025 0.5
0.0653907 0.02331 -0.0025 0.5
0.0654499 0.0231963 -0.00198774 0.5
0.0654499 0.0231963 0.00198774 0.5
0.0654499 0.0231963 0.0025 0.5
0.0654499 0.0231963 -0.0025 0.5
0.0654706 0.0234031 0.00208079 0.5
0.0654706 0.0234031 -0.00208079 0.5
0.0654706 0.0234031 0.0025 0.5
0.0654706 0.0234031 -0.0025 0.5
0.0654926 0.023865 8.21417e-19 0.5
0.0697309 0.0002775 0.0025 0.5
0.0697309 0.0002775 -0.0025 0.5
0.0655445 0.02442 0.0025 0.5
0.0655445 0.02442 -0.0025 0.5
0.0655524 0.0244087 -0.00244904 0.5
0.0655524 0.0244087 0.00244904 0.5
0.0655524 0.0244087 0.0025 0.5
0.0655524 0.0244087 -0.0025 0.5
0.0655538 0.0244299 0.00245526 0.5
0.0655538 0.0244299 -0.00245526 0.5
0.0655538 0.0244299 0.0025 0.5
0.0655538 0.0244299 -0.0025 0.5
0.0655638 0.0245129 -0.0025 0.5
0.0655638 0.0245129 0.0025 0.5
0.0700088 0.000555 -0.0025 0.5
0.0700088 0.000555 0.0025 0.5
0.0656202 0.024975 -2.10129e-19 0.5
0.0702866 0.0002775 0.0025 0.5
0.0702866 0.0002775 -0.0025 0.5
0.0656729 0.025421 -0.00200886 0.5
0.0656729 0.025421 0.00200886 0.5
0.0656729 0.025421 0.0025 0.5
0.0656729 0.025421 -0.0025 0.5
0.0705644 0.0002775 2.66209e-19 0.5
0.0657678 0.02553 0.0025 0.5
0.0657678 0.02553 -0.0025 0.5
0.0657308 0.0256968 -0.00174853 0.5
0.0657308 0.0256968 0.00174853 0.5
0.0657308 0.0256968 0.0025 0.5
0.0657308 0.0256968 -0.0025 0.5
0.0657848 0.026085 -8.84522e-20 0.5
0.0708422 0.0002775 0.0025 0.5
0.0708422 0.0002775 -0.0025 0.5
0.0658205 0.0263836 -0.00134496 0.5
0.0658205 0.0263836 0.00134496 0.5
0.0658205 0.0263836 0.0025 0.5
0.0658205 0.0263836 -0.0025 0.5
0.07112 0.000555 -0.0025 0.5
0.07112 0.000555 0.0025 0.5
0.0659603 0.02664 -0.0025 0.5
0.0659603 0.02664 0.0025 0.5
0.0659727 0.0270485 0.0025 0.5
0.0659727 0.0270485 -0.0025 0.5
0.066002 0.0272366 1.12719e-18 0.5
0.0713978 0.0002775 0.0025 0.5
0.0713978 0.0002775 -0.0025 0.5
0.0660074 0.0273069 0.0025 0.5
0.0660074 0.0273069 -0.0025 0.5
0.0716756 0.0002775 9.36031e-20 0.5
0.0661203 0.02775 0.0025 0.5
0.0661203 0.02775 -0.0025 0.5
0.0719534 0.0002775 0.0025 0.5
0.0719534 0.0002775 -0.0025 0.5
0.0662368 0.0281877 0.0025 0.5
0.0662368 0.0281877 -0.0025 0.5
0.0662507 0.0283144 -1.11288e-18 0.5
0.066265 0.0284505 0.0025 0.5
0.066265 0.0284505 -0.0025 0.5
0.0722313 0.000555 -0.0025 0.5
0.0722313 0.000555 0.0025 0.5
0.0662571 0.02886 -0.0025 0.5
0.0662571 0.02886 0.0025 0.5
0.066392 0.0291427 0.0025 0.5
0.066392 0.0291427 -0.0025 0.5
0.0663997 0.0292334 -1.4951e-20 0.5
0.0725091 0.0002775 0.0025 0.5
0.0725091 0.0002775 -0.0025 0.5
0.0727869 0.0002775 1.145e-19 0.5
0.066439 0.0297343 -0.0014381 0.5
0.066439 0.0297343 0.0014381 0.5
0.066439 0.0297343 0.0025 0.5
0.066439 0.0297343 -0.0025 0.5
0.0663777 0.02997 0.0025 0.5
0.0663777 0.02997 -0.0025 0.5
0.066497 0.0301478 0.00169913 0.5
0.066497 0.0301478 -0.00169913 0.5
0.066497 0.0301478 0.0025 0.5
0.066497 0.0301478 -0.0025 0.5
0.0730647 0.0002775 0.0025 0.5
0.0730647 0.0002775 -0.0025 0.5
0.0665217 0.030525 -7.49118e-20 0.5
0.0733425 0.000555 -0.0025 0.5
0.0733425 0.000555 0.0025 0.5
0.0665449 0.0309501 -0.00191468 0.5
0.0665449 0.0309501 0.00191468 0.5
0.0664822 0.03108 0.0025 0.5
0.0664822 0.03108 -0.0025 0.5
0.0665449 0.0309501 0.0025 0.5
0.0665449 0.0309501 -0.0025 0.5
0.0665693 0.0311856 -0.00202429 0.5
0.0665693 0.0311856 0.00202429 0.5
0.0665693 0.0311856 0.0025 0.5
0.0665693 0.0311856 -0.0025 0.5
0.0736203 0.0002775 0.0025 0.5
0.0736203 0.0002775 -0.0025 0.5
0.0665914 0.031635 -2.02539e-21 0.5
0.0738981 0.0002775 1.12679e-19 0.5
0.0666143 0.03219 0.0025 0.5
0.0666143 0.03219 -0.0025 0.5
0.0666381 0.0321532 -0.00233418 0.5
0.0666381 0.0321532 0.00233418 0.5
0.0666381 0.0321532 0.0025 0.5
0.0666381 0.0321532 -0.0025 0.5
0.0666441 0.0322209 0.00236099 0.5
0.0666441 0.0322209 -0.00236099 0.5
0.0666441 0.0322209 0.0025 0.5
0.0666441 0.0322209 -0.0025 0.5
0.0741759 0.0002775 0.0025 0.5
0.0741759 0.0002775 -0.0025 0.5
0.066675 0.0325196 -0.0025 0.5
0.066675 0.0325196 0.0025 0.5
0.0666916 0.032745 8.55759e-21 0.5
0.0744538 0.000555 -0.0025 0.5
0.0744538 0.000555 0.0025 0.5
0.0667466 0.0332284 -0.00217765 0.5
0.0667466 0.0332284 0.00217765 0.5
0.0667466 0.0332284 0.0025 0.5
0.0667466 0.0332284 -0.0025 0.5
0.0668182 0.0333 0.0025 0.5
0.0668182 0.0333 -0.0025 0.5
0.0667823 0.0334072 -0.00201731 0.5
0.0667823 0.0334072 0.00201731 0.5
0.0667823 0.0334072 0.0025 0.5
0.0667823 0.0334072 -0.0025 0.5
0.0747316 0.0002775 0.0025 0.5
0.0747316 0.0002775 -0.0025 0.5
0.0668417 0.033855 1.81934e-19 0.5
0.0750094 0.0002775 1.14375e-19 0.5
0.0668444 0.0342408 -0.00173779 0.5
0.0668444 0.0342408 0.00173779 0.5
0.0668444 0.0342408 0.0025 0.5
0.0668444 0.0342408 -0.0025 0.5
0.066841 0.0345758 -0.00175302 0.5
0.066841 0.0345758 0.00175302 0.5
0.066841 0.0345758 0.0025 0.5
0.066841 0.0345758 -0.0025 0.5
0.0669303 0.03441 0.0025 0.5
0.0669303 0.03441 -0.0025 0.5
0.0752872 0.0002775 0.0025 0.5
0.0752872 0.0002775 -0.0025 0.5
0.0668437 0.034965 0 0.5
0.075565 0.000555 -0.0025 0.5
0.075565 0.000555 0.0025 0.5
0.0668715 0.0353237 -0.0016158 0.5
0.0668715 0.0353237 0.0016158 0.5
0.0668715 0.0353237 0.0025 0.5
0.0668715 0.0353237 -0.0025 0.5
0.0669999 0.03552 0.0025 0.5
0.0669999 0.03552 -0.0025 0.5
0.0758428 0.0002775 0.0025 0.5
0.0758428 0.0002775 -0.0025 0.5
0.066951 0.0357957 -0.00125817 0.5
0.066951 0.0357957 0.00125817 0.5
0.066951 0.0357957 0.0025 0.5
0.066951 0.0357957 -0.0025 0.5
0.0761206 0.0002775 1.14623e-19 0.5
0.0669877 0.0362331 -6.09189e-20 0.5
0.0669932 0.0363121 0.0025 0.5
0.0669932 0.0363121 -0.0025 0.5
0.0763984 0.0002775 0.0025 0.5
0.0763984 0.0002775 -0.0025 0.5
0.0671163 0.03663 0.0025 0.5
0.0671163 0.03663 -0.0025 0.5
0.0671057 0.0370602 0.0025 0.5
0.0671057 0.0370602 -0.0025 0.5
0.0766763 0.000555 -0.0025 0.5
0.0766763 0.000555 0.0025 0.5
0.0671149 0.0371792 1.05534e-19 0.5
0.0671232 0.0372923 0.0025 0.5
0.0671232 0.0372923 -0.0025 0.5
0.0769541 0.0002775 0.0025 0.5
0.0769541 0.0002775 -0.0025 0.5
0.067209 0.03774 0.0025 0.5
0.067209 0.03774 -0.0025 0.5
0.0772319 0.0002775 1.08196e-19 0.5
0.0672675 0.0382733 2.65929e-18 0.5
0.0672678 0.0382578 0.0025 0.5
0.0672678 0.0382578 -0.0025 0.5
0.0672731 0.0383374 0.0025 0.5
0.0672731 0.0383374 -0.0025 0.5
0.0775097 0.0002775 0.0025 0.5
0.0775097 0.0002775 -0.0025 0.5
0.0672854 0.03885 -0.0025 0.5
0.0672854 0.03885 0.0025 0.5
0.0777875 0.000555 -0.0025 0.5
0.0777875 0.000555 0.0025 0.5
0.067376 0.0392598 -0.0025 0.5
0.067376 0.0392598 0.0025 0.5
0.0673833 0.0394098 -2.17416e-18 0.5
0.0780653 0.0002775 0.0025 0.5
0.0780653 0.0002775 -0.0025 0.5
0.0673903 0.0395645 0.0025 0.5
0.0673903 0.0395645 -0.0025 0.5
0.0783431 0.0002775 8.26565e-20 0.5
0.067346 0.03996 -0.0025 0.5
0.067346 0.03996 0.0025 0.5
0.0674485 0.0402974 0.0025 0.5
0.0674485 0.0402974 -0.0025 0.5
0.0786209 0.0002775 0.0025 0.5
0.0786209 0.0002775 -0.0025 0.5
0.0674563 0.04052 3.96861e-20 0.5
0.0674635 0.0407476 0.0025 0.5
0.0674635 0.0407476 -0.0025 0.5
0.0788988 0.000555 -0.0025 0.5
0.0788988 0.000555 0.0025 0.5
0.0673928 0.04107 0.0025 0.5
0.0673928 0.04107 -0.0025 0.5
0.0674979 0.041358 0.0025 0.5
0.0674979 0.041358 -0.0025 0.5
0.0675003 0.041447 -4.36828e-21 0.5
0.0791766 0.0002775 0.0025 0.5
0.0791766 0.0002775 -0.0025 0.5
0.0794544 0.0002775 9.54222e-20 0.5
0.0675107 0.0419047 -0.00126011 0.5
0.0675107 0.0419047 0.00126011 0.5
0.0675107 0.0419047 -0.0025 0.5
0.0675107 0.0419047 0.0025 0.5
0.0674274 0.04218 0.0025 0.5
0.0674274 0.04218 -0.0025 0.5
0.0675311 0.0424349 0.00135189 0.5
0.0675311 0.0424349 -0.00135189 0.5
0.0797322 0.0002775 0.0025 0.5
0.0797322 0.0002775 -0.0025 0.5
0.0675311 0.0424349 0.0025 0.5
0.0675311 0.0424349 -0.0025 0.5
0.0675367 0.042735 2.49755e-19 0.5
0.08001 0.000555 -0.0025 0.5
0.08001 0.000555 0.0025 0.5
0.0675403 0.0430443 -0.00139332 0.5
0.0675403 0.0430443 0.00139332 0.5
0.0675403 0.0430443 0.0025 0.5
0.0675403 0.0430443 -0.0025 0.5
0.0674507 0.04329 0.0025 0.5
0.0674507 0.04329 -0.0025 0.5
0.0802878 0.0002775 0.0025 0.5
0.0802878 0.0002775 -0.0025 0.5
0.0675512 0.0435248 0.00144226 0.5
0.0675512 0.0435248 -0.00144226 0.5
0.0675512 0.0435248 0.0025 0.5
0.0675512 0.0435248 -0.0025 0.5
0.0675548 0.043845 -1.21019e-18 0.5
0.0805656 0.0002775 1.15842e-19 0.5
0.0675566 0.0441706 0.00146655 0.5
0.0675566 0.0441706 -0.00146655 0.5
0.0675566 0.0441706 0.0025 0.5
0.0675566 0.0441706 -0.0025 0.5
0.0674638 0.0444 0.0025 0.5
0.0674638 0.0444 -0.0025 0.5
0.0808434 0.0002775 0.0025 0.5
0.0808434 0.0002775 -0.0025 0.5
0.0675616 0.0446244 -0.00148917 0.5
0.0675616 0.0446244 0.00148917 0.5
0.0675616 0.0446244 -0.0025 0.5
0.0675616 0.0446244 0.0025 0.5
0.0675634 0.044955 2.34558e-18 0.5
0.0811213 0.000555 -0.0025 0.5
0.0811213 0.000555 0.0025 0.5
0.0675641 0.0452881 -0.00150061 0.5
0.0675641 0.0452881 0.00150061 0.5
0.0675641 0.0452881 0.0025 0.5
0.0675641 0.0452881 -0.0025 0.5
0.0674699 0.04551 0.0025 0.5
0.0674699 0.04551 -0.0025 0.5
0.0813991 0.0002775 0.0025 0.5
0.0813991 0.0002775 -0.0025 0.5
0.0675661 0.04573 0.00150922 0.5
0.0675661 0.04573 -0.00150922 0.5
0.0675661 0.04573 -0.0025 0.5
0.0675661 0.04573 0.0025 0.5
0.0816769 0.0002775 9.5745e-20 0.5
0.0675668 0.046065 7.53633e-19 0.5
0.0675657 0.0463997 -0.00150768 0.5
0.0675657 0.0463997 0.00150768 0.5
0.0819547 0.0002775 0.0025 0.5
0.0819547 0.0002775 -0.0025 0.5
0.0675657 0.0463997 0.0025 0.5
0.0675657 0.0463997 -0.0025 0.5
0.0674691 0.04662 -0.0025 0.5
0.0674691 0.04662 0.0025 0.5
0.0675629 0.0468431 -0.00149492 0.5
0.0675629 0.0468431 0.00149492 0.5
0.0675629 0.0468431 -0.0025 0.5
0.0675629 0.0468431 0.0025 0.5
0.0822325 0.000555 -0.0025 0.5
0.0822325 0.000555 0.0025 0.5
0.0675618 0.047175 1.48456e-18 0.5
0.0825103 0.0002775 0.0025 0.5
0.0825103 0.0002775 -0.0025 0.5
0.0675585 0.0475025 -0.00147523 0.5
0.0675585 0.0475025 0.00147523 0.5
0.0675585 0.0475025 -0.0025 0.5
0.0675585 0.0475025 0.0025 0.5
0.0674585 0.04773 -0.0025 0.5
0.0674585 0.04773 0.0025 0.5
0.0827881 0.0002775 8.32524e-20 0.5
0.067549 0.047967 0.00143254 0.5
0.067549 0.047967 -0.00143254 0.5
0.067549 0.047967 0.0025 0.5
0.067549 0.047967 -0.0025 0.5
0.0675457 0.048285 -2.70535e-18 0.5
0.0830659 0.0002775 0.0025 0.5
0.0830659 0.0002775 -0.0025 0.5
0.0675407 0.0485947 -0.00139495 0.5
0.0675407 0.0485947 0.00139495 0.5
0.0675407 0.0485947 -0.0025 0.5
0.0675407 0.0485947 0.0025 0.5
0.0674378 0.04884 -0.0025 0.5
0.0674378 0.04884 0.0025 0.5
0.0833437 0.000555 -0.0025 0.5
0.0833437 0.000555 0.0025 0.5
0.0675238 0.0491022 0.0013189 0.5
0.0675238 0.0491022 -0.0013189 0.5
0.0675238 0.0491022 0.0025 0.5
0.0675238 0.0491022 -0.0025 0.5
0.0675188 0.049395 7.89279e-19 0.5
0.0836216 0.0002775 0.0025 0.5
0.0836216 0.0002775 -0.0025 0.5
0.0675122 0.0496762 -0.00126678 0.5
0.0675122 0.0496762 0.00126678 0.5
0.0675122 0.0496762 -0.0025 0.5
0.0675122 0.0496762 0.0025 0.5
0.0838994 0.0002775 3.228e-22 0.5
0.0674075 0.04995 0.0025 0.5
0.0674075 0.04995 -0.0025 0.5
0.0674844 0.0502515 -0.0025 0.5
0.0674844 0.0502515 0.0025 0.5
0.0841772 0.0002775 0.0025 0.5
0.0841772 0.0002775 -0.0025 0.5
0.0674777 0.0505004 1.41309e-19 0.5
0.0674706 0.0507447 0.0025 0.5
0.0674706 0.0507447 -0.0025 0.5
0.084455 0.000555 -0.0025 0.5
0.084455 0.000555 0.0025 0.5
0.0673673 0.05106 0.0025 0.5
0.0673673 0.05106 -0.0025 0.5
0.0847328 0.0002775 0.0025 0.5
0.0847328 0.0002775 -0.0025 0.5
0.0674266 0.0514193 0.0025 0.5
0.0674266 0.0514193 -0.0025 0.5
0.0674197 0.0516104 4.49599e-19 0.5
0.0850106 0.0002775 0 0.5
0.0674127 0.0517968 -0.0025 0.5
0.0674127 0.0517968 0.0025 0.5
0.0673178 0.05217 0.0025 0.5
0.0673178 0.05217 -0.0025 0.5
0.0852884 0.0002775 0.0025 0.5
0.0852884 0.0002775 -0.0025 0.5
0.0673441 0.0526116 -0.0025 0.5
0.0673441 0.0526116 0.0025 0.5
0.0673391 0.0527216 -1.72749e-20 0.5
0.0855663 0.000555 -0.0025 0.5
0.0855663 0.000555 0.0025 0.5
0.067334 0.0528283 -0.0025 0.5
0.067334 0.0528283 0.0025 0.5
0.0672601 0.05328 0.0025 0.5
0.0672601 0.05328 -0.0025 0.5
0.0858441 0.0002775 0.0025 0.5
0.0858441 0.0002775 -0.0025 0.5
0.0861219 0.0002775 0 0.5
0.0672285 0.0538334 -5.0216e-18 0.5
0.0672285 0.0538328 0.0025 0.5
0.0672285 0.0538328 -0.0025 0.5
0.0672282 0.0538374 0.0025 0.5
0.0672282 0.0538374 -0.0025 0.5
0.0863997 0.0002775 0.0025 0.5
0.0863997 0.0002775 -0.0025 0.5
0.067196 0.05439 -0.0025 0.5
0.067196 0.05439 0.0025 0.5
0.0671154 0.0548299 0.0025 0.5
0.0671154 0.0548299 -0.0025 0.5
0.0866775 0.000555 -0.0025 0.5
0.0866775 0.000555 0.0025 0.5
0.0671089 0.0549495 4.44607e-18 0.5
0.067102 0.0550735 0.0025 0.5
0.067102 0.0550735 -0.0025 0.5
0.0869553 0.0002775 0.0025 0.5
0.0869553 0.0002775 -0.0025 0.5
0.0671275 0.0555 -0.0025 0.5
0.0671275 0.0555 0.0025 0.5
0.0872331 0.0002775 0 0.5
0.0670201 0.0558447 0.0025 0.5
0.0670201 0.0558447 -0.0025 0.5
0.0670091 0.0560624 -2.74748e-18 0.5
0.0669978 0.0562876 0.0025 0.5
0.0669978 0.0562876 -0.0025 0.5
0.0875109 0.0002775 0.0025 0.5
0.0875109 0.0002775 -0.0025 0.5
0.0670578 0.05661 0.0025 0.5
0.0670578 0.05661 -0.0025 0.5
0.0877888 0.000555 -0.0025 0.5
0.0877888 0.000555 0.0025 0.5
0.0669415 0.0568762 -0.00130079 0.5
0.0669415 0.0568762 0.00130079 0.5
0.0669415 0.0568762 0.0025 0.5
0.0669415 0.0568762 -0.0025 0.5
0.0669284 0.057165 1.59235e-18 0.5
0.0880666 0.0002775 -0.00125 0.5
0.0880666 0.0002775 0.00125 0.5
0.0880666 0.0002775 0.0025 0.5
0.0880666 0.0002775 -0.0025 0.5
0.0669145 0.0574807 -0.00142228 0.5
0.0669145 0.0574807 0.00142228 0.5
0.0669145 0.0574807 0.0025 0.5
0.0669145 0.0574807 -0.0025 0.5
0.0883444 0.0002775 0 0.5
0.0883444 0.00111 0.0025 0.5
0.0883444 0.00111 -0.0025 0.5
0.0883444 0.00222 0.0025 0.5
0.0883444 0.00222 -0.0025 0.5
0.0883444 0.00333 0.0025 0.5
0.0883444 0.00333 -0.0025 0.5
0.0669896 0.05772 0.0025 0.5
0.0669896 0.05772 -0.0025 0.5
0.0668775 0.0579222 -0.00158898 0.5
0.0668775 0.0579222 0.00158898 0.5
0.0883444 0.00444 0.0025 0.5
0.0883444 0.00444 -0.0025 0.5
0.0668775 0.0579222 0.0025 0.5
0.0668775 0.0579222 -0.0025 0.5
0.0883444 0.00555 0.0025 0.5
0.0883444 0.00555 -0.0025 0.5
0.0886222 0.000555 0 0.5
0.0883444 0.00666 0.0025 0.5
0.0883444 0.00666 -0.0025 0.5
0.0886222 0.0002775 -0.00125 0.5
0.0886222 0.0002775 0.00125 0.5
0.0886222 0.0008325 0.00125 0.5
0.0886222 0.0008325 -0.00125 0.5
0.0886222 0.001665 0 0.5
0.0886222 0.0002775 0.0025 0.5
0.0886222 0.0002775 -0.0025 0.5
0.0886222 0.0008325 0.0025 0.5
0.0886222 0.0008325 -0.0025 0.5
0.0886222 0.002775 0 0.5
0.0886222 0.0013875 0.0025 0.5
0.0886222 0.0013875 -0.0025 0.5
0.0886222 0.0019425 0.0025 0.5
0.0886222 0.0019425 -0.0025 0.5
0.0886222 0.0024975 0.0025 0.5
0.0886222 0.0024975 -0.0025 0.5
0.0668633 0.058275 1.10705e-19 0.5
0.0886222 0.003885 0 0.5
0.0886222 0.0030525 0.0025 0.5
0.0886222 0.0030525 -0.0025 0.5
0.0883444 0.00777 0.0025 0.5
0.0883444 0.00777 -0.0025 0.5
0.0886222 0.0036075 0.0025 0.5
0.0886222 0.0036075 -0.0025 0.5
0.0886222 0.0041625 0.0025 0.5
0.0886222 0.0041625 -0.0025 0.5
0.0886222 0.004995 -1.81603e-19 0.5
0.0886222 0.0047175 0.0025 0.5
0.0886222 0.0047175 -0.0025 0.5
0.0886222 0.0052725 0.0025 0.5
0.0886222 0.0052725 -0.0025 0.5
0.0883444 0.00888 0.0025 0.5
0.0883444 0.00888 -0.0025 0.5
0.0886222 0.006105 -4.31797e-21 0.5
0.0886222 0.0058275 0.0025 0.5
0.0886222 0.0058275 -0.0025 0.5
0.0886222 0.0063825 0.0025 0.5
0.0886222 0.0063825 -0.0025 0.5
0.0886222 0.007215 3.76366e-21 0.5
0.0886222 0.0069375 -0.0025 0.5
0.0886222 0.0069375 0.0025 0.5
0.0883444 0.00999 0.0025 0.5
0.0883444 0.00999 -0.0025 0.5
0.0668492 0.058656 0.00171641 0.5
0.0668492 0.058656 -0.00171641 0.5
0.0668492 0.058656 0.0025 0.5
0.0668492 0.058656 -0.0025 0.5
0.0886222 0.0074925 -0.0025 0.5
0.0886222 0.0074925 0.0025 0.5
0.0886222 0.008325 1.10296e-21 0.5
0.0886222 0.0080475 -0.0025 0.5
0.0886222 0.0080475 0.0025 0.5
0.0886222 0.0086025 -0.0025 0.5
0.0886222 0.0086025 0.0025 0.5
0.0883444 0.0111 0.0025 0.5
0.0883444 0.0111 -0.0025 0.5
0.0886222 0.009435 1.92878e-21 0.5
0.0886222 0.0091575 0.0025 0.5
0.0886222 0.0091575 -0.0025 0.5
0.0669255 0.05883 0.0025 0.5
0.0669255 0.05883 -0.0025 0.5
0.066826 0.0589808 0.0018208 0.5
0.066826 0.0589808 -0.0018208 0.5
0.066826 0.0589808 0.0025 0.5
0.066826 0.0589808 -0.0025 0.5
0.0886222 0.0097125 0.0025 0.5
0.0886222 0.0097125 -0.0025 0.5
0.0883444 0.01221 0.0025 0.5
0.0883444 0.01221 -0.0025 0.5
0.0886222 0.010545 3.88923e-21 0.5
0.0886222 0.0102675 0.0025 0.5
0.0886222 0.0102675 -0.0025 0.5
0.0886222 0.0108225 0.0025 0.5
0.0886222 0.0108225 -0.0025 0.5
0.0883444 0.01332 0.0025 0.5
0.0883444 0.01332 -0.0025 0.5
0.0886222 0.0113775 0.0025 0.5
0.0886222 0.0113775 -0.0025 0.5
0.0886222 0.011655 2.78619e-21 0.5
0.066812 0.059385 1.85349e-18 0.5
0.0886222 0.0119325 0.0025 0.5
0.0886222 0.0119325 -0.0025 0.5
0.0886222 0.0124875 -0.0025 0.5
0.0886222 0.0124875 0.0025 0.5
0.0886222 0.012765 1.81655e-19 0.5
0.0883444 0.01443 0.0025 0.5
0.0883444 0.01443 -0.0025 0.5
0.0886222 0.0130425 -0.0025 0.5
0.0886222 0.0130425 0.0025 0.5
0.0667983 0.0598169 0.00194528 0.5
0.0667983 0.0598169 -0.00194528 0.5
0.0886222 0.0135975 0.0025 0.5
0.0886222 0.0135975 -0.0025 0.5
0.0667983 0.0598169 0.0025 0.5
0.0667983 0.0598169 -0.0025 0.5
0.0886222 0.013875 0 0.5
0.0883444 0.01554 0.0025 0.5
0.0883444 0.01554 -0.0025 0.5
0.0886222 0.0141525 0.0025 0.5
0.0886222 0.0141525 -0.0025 0.5
0.066784 0.0600489 -0.0020096 0.5
0.066784 0.0600489 0.0020096 0.5
0.0668665 0.05994 0.0025 0.5
0.0668665 0.05994 -0.0025 0.5
0.066784 0.0600489 -0.0025 0.5
0.066784 0.0600489 0.0025 0.5
0.0886222 0.0147075 -0.0025 0.5
0.0886222 0.0147075 0.0025 0.5
0.0886222 0.014985 7.52748e-21 0.5
0.0883444 0.01665 0.0025 0.5
0.0883444 0.01665 -0.0025 0.5
0.0886222 0.0152625 -0.0025 0.5
0.0886222 0.0152625 0.0025 0.5
0.0886222 0.0158175 0.0025 0.5
0.0886222 0.0158175 -0.0025 0.5
0.0886222 0.016095 0 0.5
0.0667707 0.060495 -2.44053e-18 0.5
0.0883444 0.01776 0.0025 0.5
0.0883444 0.01776 -0.0025 0.5
0.0886222 0.0163725 0.0025 0.5
0.0886222 0.0163725 -0.0025 0.5
0.0886222 0.0169275 0.0025 0.5
0.0886222 0.0169275 -0.0025 0.5
0.0886222 0.017205 0 0.5
0.0886222 0.0174825 0.0025 0.5
0.0886222 0.0174825 -0.0025 0.5
0.0883444 0.01887 0.0025 0.5
0.0883444 0.01887 -0.0025 0.5
0.066758 0.0609671 0.00212649 0.5
0.066758 0.0609671 -0.00212649 0.5
0.066758 0.0609671 0.0025 0.5
0.066758 0.0609671 -0.0025 0.5
0.0886222 0.0180375 0.0025 0.5
0.0886222 0.0180375 -0.0025 0.5
0.0886222 0.018315 -4.24739e-19 0.5
0.0667498 0.0611247 0.00216351 0.5
0.0667498 0.0611247 -0.00216351 0.5
0.0668128 0.06105 0.0025 0.5
0.0668128 0.06105 -0.0025 0.5
0.0667498 0.0611247 0.0025 0.5
0.0667498 0.0611247 -0.0025 0.5
0.0886222 0.0185925 0.0025 0.5
0.0886222 0.0185925 -0.0025 0.5
0.0883444 0.01998 0.0025 0.5
0.0883444 0.01998 -0.0025 0.5
0.0886222 0.0191475 0.0025 0.5
0.0886222 0.0191475 -0.0025 0.5
0.0886222 0.019425 2.54579e-19 0.5
0.0886222 0.0197025 0.0025 0.5
0.0886222 0.0197025 -0.0025 0.5
0.0667376 0.061605 2.69834e-18 0.5
0.0883444 0.02109 0.0025 0.5
0.0883444 0.02109 -0.0025 0.5
0.0886222 0.0202575 0.0025 0.5
0.0886222 0.0202575 -0.0025 0.5
0.0886222 0.020535 -4.2863e-21 0.5
0.0886222 0.0208125 0.0025 0.5
0.0886222 0.0208125 -0.0025 0.5
0.0883444 0.0222 0.0025 0.5
0.0883444 0.0222 -0.0025 0.5
0.0667268 0.0621083 -0.00226696 0.5
0.0667268 0.0621083 0.00226696 0.5
0.0667268 0.0621083 -0.0025 0.5
0.0667268 0.0621083 0.0025 0.5
0.0886222 0.0213675 0.0025 0.5
0.0886222 0.0213675 -0.0025 0.5
0.0886222 0.021645 -2.44648e-21 0.5
0.0667226 0.0622076 -0.00228564 0.5
0.0667226 0.0622076 0.00228564 0.5
0.0667661 0.06216 -0.0025 0.5
0.0667661 0.06216 0.0025 0.5
0.0667226 0.0622076 0.0025 0.5
0.0667226 0.0622076 -0.0025 0.5
0.0886222 0.0219225 0.0025 0.5
0.0886222 0.0219225 -0.0025 0.5
0.0883444 0.02331 0.0025 0.5
0.0883444 0.02331 -0.0025 0.5
0.0886222 0.0224775 0.0025 0.5
0.0886222 0.0224775 -0.0025 0.5
0.0886222 0.022755 -2.49561e-19 0.5
0.0667122 0.062715 5.0097e-20 0.5
0.0886222 0.0230325 0.0025 0.5
0.0886222 0.0230325 -0.0025 0.5
0.0883444 0.02442 0.0025 0.5
0.0883444 0.02442 -0.0025 0.5
0.0886222 0.0235875 0.0025 0.5
0.0886222 0.0235875 -0.0025 0.5
0.0886222 0.023865 4.33092e-19 0.5
0.0886222 0.0241425 0.0025 0.5
0.0886222 0.0241425 -0.0025 0.5
0.0667027 0.0632423 -0.00237523 0.5
0.0667027 0.0632423 0.00237523 0.5
0.0667027 0.0632423 0.0025 0.5
0.0667027 0.0632423 -0.0025 0.5
0.0667009 0.0632958 -0.00238365 0.5
0.0667009 0.0632958 0.00238365 0.5
0.0667009 0.0632958 0.0025 0.5
0.0667009 0.0632958 -0.0025 0.5
0.066726 0.06327 0.0025 0.5
0.066726 0.06327 -0.0025 0.5
0.0883444 0.02553 0.0025 0.5
0.0883444 0.02553 -0.0025 0.5
0.0886222 0.0246975 -0.0025 0.5
0.0886222 0.0246975 0.0025 0.5
0.0886222 0.024975 1.19177e-21 0.5
0.0886222 0.0252525 0.0025 0.5
0.0886222 0.0252525 -0.0025 0.5
0.0883444 0.02664 0.0025 0.5
0.0883444 0.02664 -0.0025 0.5
0.0666917 0.063825 1.1344e-19 0.5
0.0886222 0.0258075 0.0025 0.5
0.0886222 0.0258075 -0.0025 0.5
0.0886222 0.026085 9.22105e-21 0.5
0.0886222 0.0263625 0.0025 0.5
0.0886222 0.0263625 -0.0025 0.5
0.0883444 0.02775 0.0025 0.5
0.0883444 0.02775 -0.0025 0.5
0.0886222 0.0269175 0.0025 0.5
0.0886222 0.0269175 -0.0025 0.5
0.0886222 0.027195 1.2044e-20 0.5
0.0666821 0.0643729 -0.002468 0.5
0.0666821 0.0643729 0.002468 0.5
0.0666821 0.0643729 0.0025 0.5
0.0666821 0.0643729 -0.0025 0.5
0.0666817 0.0643867 -0.00246987 0.5
0.0666817 0.0643867 0.00246987 0.5
0.0666817 0.0643867 0.0025 0.5
0.0666817 0.0643867 -0.0025 0.5
0.0666886 0.06438 0.0025 0.5
0.0666886 0.06438 -0.0025 0.5
0.0886222 0.0274725 0.0025 0.5
0.0886222 0.0274725 -0.0025 0.5
0.0883444 0.02886 0.0025 0.5
0.0883444 0.02886 -0.0025 0.5
0.0886222 0.0280275 0.0025 0.5
0.0886222 0.0280275 -0.0025 0.5
0.0886222 0.028305 -8.22717e-21 0.5
0.0666724 0.064935 1.46844e-19 0.5
0.0886222 0.0285825 0.0025 0.5
0.0886222 0.0285825 -0.0025 0.5
0.0886222 0.0291375 0.0025 0.5
0.0886222 0.0291375 -0.0025 0.5
0.0883444 0.02997 0.0025 0.5
0.0883444 0.02997 -0.0025 0.5
0.0886222 0.029415 -6.85063e-19 0.5
0.0667077 0.0654573 -0.00235292 0.5
0.0667077 0.0654573 0.00235292 0.5
0.0667077 0.0654573 0.0025 0.5
0.0667077 0.0654573 -0.0025 0.5
0.0886222 0.0296925 0.0025 0.5
0.0886222 0.0296925 -0.0025 0.5
0.066745 0.06549 0.0025 0.5
0.066745 0.06549 -0.0025 0.5
0.0667195 0.0655344 -0.00229988 0.5
0.0667195 0.0655344 0.00229988 0.5
0.0667195 0.0655344 0.0025 0.5
0.0667195 0.0655344 -0.0025 0.5
0.0886222 0.0302475 0.0025 0.5
0.0886222 0.0302475 -0.0025 0.5
0.0883444 0.03108 0.0025 0.5
0.0883444 0.03108 -0.0025 0.5
0.0886222 0.030525 6.22217e-19 0.5
0.0886222 0.0308025 0.0025 0.5
0.0886222 0.0308025 -0.0025 0.5
0.0886222 0.0313575 0.0025 0.5
0.0886222 0.0313575 -0.0025 0.5
0.0883444 0.03219 0.0025 0.5
0.0883444 0.03219 -0.0025 0.5
0.0886222 0.031635 -3.88923e-21 0.5
0.0886222 0.0319125 0.0025 0.5
0.0886222 0.0319125 -0.0025 0.5
0.0669983 0.066277 0.0025 0.5
0.0669983 0.066277 -0.0025 0.5
0.0671683 0.0662616 3.81872e-21 0.5
0.0886222 0.0324675 0.0025 0.5
0.0886222 0.0324675 -0.0025 0.5
0.0883444 0.0333 0.0025 0.5
0.0883444 0.0333 -0.0025 0.5
0.0886222 0.032745 0 0.5
0.0674629 0.066277 0.0025 0.5
0.0674629 0.066277 -0.0025 0.5
0.0886222 0.0330225 0.0025 0.5
0.0886222 0.0330225 -0.0025 0.5
0.0677863 0.0660248 -0.0025 0.5